/*--------------------------------*- C++ -*----------------------------------*\
| =========                 |                                                 |
| \\      /  F ield         | OpenFOAM: The Open Source CFD Toolbox           |
|  \\    /   O peration     | Version:  v1912                                 |
|   \\  /    A nd           | Website:  www.openfoam.com                      |
|    \\/     M anipulation  |                                                 |
\*---------------------------------------------------------------------------*/
FoamFile
{
    version     2.0;
    format      ascii;
    class       volScalarField;
    location    "2";
    object      alphat;
}
// * * * * * * * * * * * * * * * * * * * * * * * * * * * * * * * * * * * * * //

dimensions      [1 -1 -1 0 0 0 0];


internalField   nonuniform List<scalar> 
255504
(
2.159931e-06
2.1596856e-06
2.1597869e-06
2.1601723e-06
2.1604694e-06
2.1606905e-06
2.1608459e-06
2.1609461e-06
2.1610029e-06
2.1610296e-06
2.1610387e-06
2.1610405e-06
2.1610407e-06
2.1610392e-06
2.1610305e-06
2.1610045e-06
2.1609486e-06
2.1608496e-06
2.1606956e-06
2.1604762e-06
2.160181e-06
2.1597978e-06
2.1597002e-06
2.1599454e-06
2.1601683e-06
2.1603728e-06
2.1605581e-06
2.1607198e-06
2.1608524e-06
2.1609515e-06
2.1610155e-06
2.1610472e-06
2.1610538e-06
2.1610451e-06
2.1610316e-06
2.1610223e-06
2.1610221e-06
2.161031e-06
2.1610439e-06
2.1610519e-06
2.1610444e-06
2.1610114e-06
2.160946e-06
2.1608453e-06
2.1607107e-06
2.160547e-06
2.1603595e-06
2.1601525e-06
2.2272059e-06
2.2269214e-06
2.2271385e-06
2.2275667e-06
2.2278811e-06
2.2281107e-06
2.2282689e-06
2.2283668e-06
2.2284179e-06
2.2284372e-06
2.2284397e-06
2.2284377e-06
2.2284378e-06
2.2284402e-06
2.2284381e-06
2.2284194e-06
2.2283692e-06
2.2282724e-06
2.2281158e-06
2.2278881e-06
2.2275758e-06
2.2271502e-06
2.2269356e-06
2.2272212e-06
2.2274871e-06
2.2277243e-06
2.2279343e-06
2.2281151e-06
2.2282614e-06
2.2283683e-06
2.2284344e-06
2.228463e-06
2.228463e-06
2.2284463e-06
2.2284258e-06
2.2284124e-06
2.2284123e-06
2.2284252e-06
2.2284452e-06
2.2284612e-06
2.2284603e-06
2.2284304e-06
2.2283628e-06
2.2282542e-06
2.2281059e-06
2.227923e-06
2.227711e-06
2.2274719e-06
2.2110835e-06
2.2109327e-06
2.2113407e-06
2.2117125e-06
2.2120149e-06
2.2122418e-06
2.2123955e-06
2.2124843e-06
2.2125224e-06
2.2125277e-06
2.2125183e-06
2.2125095e-06
2.2125096e-06
2.2125187e-06
2.2125284e-06
2.2125238e-06
2.2124865e-06
2.2123988e-06
2.2122466e-06
2.2120216e-06
2.2117215e-06
2.2113525e-06
2.2109459e-06
2.2110985e-06
2.2114722e-06
2.2117604e-06
2.2120027e-06
2.2122067e-06
2.2123686e-06
2.2124831e-06
2.2125487e-06
2.21257e-06
2.212558e-06
2.2125279e-06
2.2124961e-06
2.2124762e-06
2.2124761e-06
2.2124956e-06
2.212527e-06
2.2125564e-06
2.2125675e-06
2.212545e-06
2.2124779e-06
2.2123615e-06
2.2121976e-06
2.2119915e-06
2.2117472e-06
2.2114579e-06
2.1118864e-06
2.111858e-06
2.1122536e-06
2.1126038e-06
2.112892e-06
2.1131078e-06
2.1132498e-06
2.1133254e-06
2.1133494e-06
2.1133415e-06
2.113322e-06
2.1133076e-06
2.1133077e-06
2.1133223e-06
2.1133422e-06
2.1133505e-06
2.1133272e-06
2.1132526e-06
2.113112e-06
2.112898e-06
2.112612e-06
2.1122643e-06
2.1118708e-06
2.1119004e-06
2.1122749e-06
2.1125789e-06
2.1128354e-06
2.1130486e-06
2.1132146e-06
2.1133281e-06
2.1133883e-06
2.1134009e-06
2.1133784e-06
2.113338e-06
2.113298e-06
2.1132736e-06
2.1132735e-06
2.1132976e-06
2.1133373e-06
2.1133771e-06
2.1133988e-06
2.1133851e-06
2.1133235e-06
2.1132081e-06
2.1130401e-06
2.1128246e-06
2.1125663e-06
2.1122613e-06
1.9551133e-06
1.9551327e-06
1.9555629e-06
1.955933e-06
1.9562324e-06
1.95645e-06
1.9565831e-06
1.9566402e-06
1.9566396e-06
1.9566059e-06
1.9565651e-06
1.9565386e-06
1.9565387e-06
1.9565653e-06
1.9566063e-06
1.9566403e-06
1.9566415e-06
1.9565853e-06
1.9564534e-06
1.9562377e-06
1.9559405e-06
1.9555731e-06
1.9551456e-06
1.9551277e-06
1.9555063e-06
1.9558307e-06
1.9561125e-06
1.9563491e-06
1.9565313e-06
1.9566512e-06
1.9567066e-06
1.9567044e-06
1.9566605e-06
1.9565969e-06
1.9565375e-06
1.9565021e-06
1.956502e-06
1.9565373e-06
1.9565965e-06
1.9566596e-06
1.9567029e-06
1.9567041e-06
1.9566473e-06
1.9565256e-06
1.956341e-06
1.956102e-06
1.9558178e-06
1.9554923e-06
1.7835613e-06
1.7836125e-06
1.7840905e-06
1.7844962e-06
1.7848176e-06
1.7850424e-06
1.7851677e-06
1.7852038e-06
1.7851734e-06
1.7851079e-06
1.7850406e-06
1.784999e-06
1.784999e-06
1.7850406e-06
1.785108e-06
1.7851737e-06
1.7852046e-06
1.7851693e-06
1.7850451e-06
1.784822e-06
1.7845031e-06
1.7841005e-06
1.7836262e-06
1.7835772e-06
1.783964e-06
1.7843113e-06
1.784623e-06
1.7848885e-06
1.7850925e-06
1.7852222e-06
1.7852733e-06
1.7852536e-06
1.7851832e-06
1.7850904e-06
1.7850062e-06
1.7849567e-06
1.7849567e-06
1.7850062e-06
1.7850903e-06
1.7851827e-06
1.7852526e-06
1.7852713e-06
1.7852189e-06
1.7850873e-06
1.7848807e-06
1.7846122e-06
1.7842975e-06
1.7839485e-06
1.6577295e-06
1.6578198e-06
1.6583614e-06
1.6588174e-06
1.6591721e-06
1.6594109e-06
1.6595302e-06
1.6595422e-06
1.6594754e-06
1.6593698e-06
1.6592685e-06
1.6592076e-06
1.6592075e-06
1.6592683e-06
1.6593696e-06
1.6594753e-06
1.6595424e-06
1.6595311e-06
1.659413e-06
1.6591759e-06
1.6588239e-06
1.6583717e-06
1.6578351e-06
1.657749e-06
1.6581466e-06
1.658524e-06
1.6588756e-06
1.6591811e-06
1.6594164e-06
1.6595621e-06
1.6596103e-06
1.6595698e-06
1.6594655e-06
1.6593346e-06
1.6592179e-06
1.6591496e-06
1.6591497e-06
1.659218e-06
1.6593348e-06
1.6594655e-06
1.6595692e-06
1.6596088e-06
1.6595591e-06
1.6594113e-06
1.6591729e-06
1.6588636e-06
1.658508e-06
1.6581277e-06
1.6851365e-06
1.6853097e-06
1.6859613e-06
1.686503e-06
1.6869183e-06
1.6871879e-06
1.6873042e-06
1.6872814e-06
1.687157e-06
1.6869859e-06
1.6868283e-06
1.6867349e-06
1.6867347e-06
1.6868278e-06
1.6869853e-06
1.6871563e-06
1.6872811e-06
1.6873047e-06
1.6871896e-06
1.6869219e-06
1.6865096e-06
1.6859726e-06
1.6853287e-06
1.6851676e-06
1.6855855e-06
1.6860194e-06
1.6864437e-06
1.6868222e-06
1.6871163e-06
1.6872942e-06
1.6873415e-06
1.6872677e-06
1.6871071e-06
1.6869116e-06
1.6867392e-06
1.6866389e-06
1.6866391e-06
1.6867397e-06
1.6869123e-06
1.6871075e-06
1.6872676e-06
1.6873402e-06
1.6872911e-06
1.6871105e-06
1.6868124e-06
1.6864287e-06
1.6859981e-06
1.6855577e-06
1.9526196e-06
1.9529352e-06
1.9537204e-06
1.9543662e-06
1.9548619e-06
1.9551783e-06
1.9552998e-06
1.9552412e-06
1.9550514e-06
1.9548037e-06
1.9545795e-06
1.9544474e-06
1.9544471e-06
1.9545786e-06
1.9548026e-06
1.9550502e-06
1.9552404e-06
1.9552999e-06
1.95518e-06
1.9548658e-06
1.9543735e-06
1.9537327e-06
1.9529577e-06
1.95268e-06
1.9531433e-06
1.9536626e-06
1.954185e-06
1.9546591e-06
1.9550299e-06
1.9552512e-06
1.9553002e-06
1.955188e-06
1.95496e-06
1.9546868e-06
1.9544471e-06
1.9543082e-06
1.9543085e-06
1.954448e-06
1.9546879e-06
1.954961e-06
1.9551883e-06
1.9552991e-06
1.9552477e-06
1.9550229e-06
1.9546469e-06
1.9541659e-06
1.953634e-06
1.9531007e-06
2.5170837e-06
2.5177266e-06
2.5186209e-06
2.5193331e-06
2.5198807e-06
2.5202263e-06
2.5203467e-06
2.5202573e-06
2.5200153e-06
2.5197081e-06
2.5194327e-06
2.5192714e-06
2.519271e-06
2.5194317e-06
2.5197067e-06
2.5200138e-06
2.5202562e-06
2.5203467e-06
2.5202281e-06
2.519885e-06
2.5193404e-06
2.5186301e-06
2.5177382e-06
2.5172531e-06
2.5178189e-06
2.5184378e-06
2.5190438e-06
2.5195892e-06
2.5200143e-06
2.5202644e-06
2.5203115e-06
2.5201679e-06
2.5198878e-06
2.5195555e-06
2.5192653e-06
2.5190973e-06
2.5190977e-06
2.5192663e-06
2.519557e-06
2.5198892e-06
2.5201686e-06
2.5203104e-06
2.5202606e-06
2.5200061e-06
2.5195747e-06
2.5190201e-06
2.5183994e-06
2.5177446e-06
3.3174437e-06
3.3182557e-06
3.3189815e-06
3.3195847e-06
3.3200486e-06
3.320341e-06
3.3204442e-06
3.3203728e-06
3.3201753e-06
3.3199245e-06
3.3196999e-06
3.3195683e-06
3.3195681e-06
3.3196991e-06
3.3199235e-06
3.3201743e-06
3.3203723e-06
3.3204447e-06
3.3203432e-06
3.320053e-06
3.3195902e-06
3.3189758e-06
3.3181437e-06
3.317329e-06
3.3181013e-06
3.3187599e-06
3.3193187e-06
3.3197907e-06
3.3201487e-06
3.3203568e-06
3.3203959e-06
3.320278e-06
3.3200484e-06
3.3197767e-06
3.3195399e-06
3.319403e-06
3.3194033e-06
3.3195407e-06
3.3197778e-06
3.3200494e-06
3.3202782e-06
3.3203946e-06
3.3203527e-06
3.3201403e-06
3.3197758e-06
3.3192938e-06
3.3187155e-06
3.3179744e-06
4.1602097e-06
4.1607636e-06
4.1611826e-06
4.1614928e-06
4.1617137e-06
4.1618552e-06
4.161925e-06
4.1619346e-06
4.1619022e-06
4.1618496e-06
4.161799e-06
4.1617685e-06
4.1617685e-06
4.161799e-06
4.1618498e-06
4.1619026e-06
4.1619356e-06
4.1619268e-06
4.1618582e-06
4.161718e-06
4.1614969e-06
4.1611754e-06
4.1606884e-06
4.1599012e-06
4.1604669e-06
4.1610664e-06
4.1614081e-06
4.1616309e-06
4.1617774e-06
4.1618613e-06
4.1618886e-06
4.1618683e-06
4.1618155e-06
4.1617497e-06
4.1616911e-06
4.1616567e-06
4.1616567e-06
4.1616911e-06
4.1617496e-06
4.1618151e-06
4.1618673e-06
4.1618863e-06
4.161857e-06
4.1617698e-06
4.1616182e-06
4.1613878e-06
4.1610365e-06
4.1604432e-06
4.621851e-06
4.6222114e-06
4.6223616e-06
4.6223862e-06
4.6223612e-06
4.6223488e-06
4.6223863e-06
4.622482e-06
4.6226194e-06
4.6227655e-06
4.6228841e-06
4.6229493e-06
4.6229496e-06
4.6228849e-06
4.6227668e-06
4.6226213e-06
4.6224844e-06
4.6223893e-06
4.6223526e-06
4.6223654e-06
4.6223893e-06
4.6223565e-06
4.6221729e-06
4.6217355e-06
4.6219574e-06
4.6223787e-06
4.6224899e-06
4.6224622e-06
4.6223962e-06
4.6223555e-06
4.6223738e-06
4.6224562e-06
4.6225837e-06
4.622722e-06
4.6228347e-06
4.6228964e-06
4.6228961e-06
4.6228339e-06
4.6227206e-06
4.6225818e-06
4.6224536e-06
4.6223704e-06
4.6223509e-06
4.6223897e-06
4.6224526e-06
4.6224759e-06
4.6223614e-06
4.6219566e-06
3.9258177e-06
3.926151e-06
3.9262974e-06
3.92633e-06
3.9263136e-06
3.9263018e-06
3.9263273e-06
3.926397e-06
3.9264955e-06
3.9265959e-06
3.9266731e-06
3.9267137e-06
3.9267139e-06
3.9266738e-06
3.9265971e-06
3.9264973e-06
3.9263992e-06
3.9263301e-06
3.926305e-06
3.9263167e-06
3.9263308e-06
3.9262885e-06
3.926114e-06
3.9257379e-06
3.9258682e-06
3.9262529e-06
3.9263789e-06
3.9263791e-06
3.9263377e-06
3.9263096e-06
3.9263241e-06
3.9263854e-06
3.9264766e-06
3.9265703e-06
3.9266421e-06
3.9266793e-06
3.9266791e-06
3.9266413e-06
3.926569e-06
3.9264747e-06
3.9263829e-06
3.9263209e-06
3.9263056e-06
3.9263326e-06
3.9263723e-06
3.9263702e-06
3.9262454e-06
3.9258802e-06
3.1948464e-06
3.1951371e-06
3.1952619e-06
3.1952937e-06
3.1952876e-06
3.1952821e-06
3.1952983e-06
3.195341e-06
3.195401e-06
3.1954627e-06
3.1955114e-06
3.1955377e-06
3.1955379e-06
3.1955119e-06
3.1954637e-06
3.1954024e-06
3.1953428e-06
3.1953005e-06
3.1952844e-06
3.1952894e-06
3.1952925e-06
3.1952512e-06
3.1951045e-06
3.1947903e-06
3.1948602e-06
3.195187e-06
3.1953049e-06
3.1953206e-06
3.1953018e-06
3.1952878e-06
3.1952982e-06
3.195336e-06
3.1953915e-06
3.1954492e-06
3.1954946e-06
3.195519e-06
3.1955188e-06
3.195494e-06
3.1954481e-06
3.19539e-06
3.195334e-06
3.1952957e-06
3.1952849e-06
3.1952982e-06
3.1953163e-06
3.1953006e-06
3.1951868e-06
3.1948782e-06
2.5274031e-06
2.5276548e-06
2.5277585e-06
2.5277836e-06
2.5277798e-06
2.527776e-06
2.5277856e-06
2.5278117e-06
2.5278494e-06
2.5278898e-06
2.5279234e-06
2.5279424e-06
2.5279425e-06
2.5279238e-06
2.5278906e-06
2.5278505e-06
2.527813e-06
2.5277872e-06
2.5277776e-06
2.5277808e-06
2.5277816e-06
2.5277482e-06
2.5276279e-06
2.5273623e-06
2.5274004e-06
2.5276755e-06
2.5277782e-06
2.5277964e-06
2.527787e-06
2.5277792e-06
2.5277859e-06
2.5278094e-06
2.5278448e-06
2.5278831e-06
2.527915e-06
2.527933e-06
2.5279328e-06
2.5279145e-06
2.5278823e-06
2.5278436e-06
2.527808e-06
2.5277842e-06
2.5277771e-06
2.5277846e-06
2.5277939e-06
2.5277767e-06
2.5276788e-06
2.5274185e-06
1.9351803e-06
1.9354022e-06
1.9354954e-06
1.9355211e-06
1.9355223e-06
1.9355211e-06
1.9355269e-06
1.9355415e-06
1.9355627e-06
1.9355858e-06
1.9356052e-06
1.9356163e-06
1.9356164e-06
1.9356055e-06
1.9355863e-06
1.9355634e-06
1.9355424e-06
1.9355279e-06
1.9355222e-06
1.9355227e-06
1.9355191e-06
1.9354867e-06
1.9353815e-06
1.9351509e-06
1.9351729e-06
1.9354102e-06
1.9355043e-06
1.935527e-06
1.9355256e-06
1.9355225e-06
1.9355267e-06
1.9355399e-06
1.9355597e-06
1.9355816e-06
1.9356001e-06
1.9356106e-06
1.9356105e-06
1.9355997e-06
1.935581e-06
1.9355589e-06
1.9355389e-06
1.9355255e-06
1.9355211e-06
1.935524e-06
1.9355256e-06
1.935504e-06
1.9354142e-06
1.9351882e-06
1.4197224e-06
1.4199146e-06
1.4199973e-06
1.4200235e-06
1.4200289e-06
1.4200302e-06
1.4200337e-06
1.4200408e-06
1.4200507e-06
1.4200613e-06
1.4200702e-06
1.4200753e-06
1.4200754e-06
1.4200704e-06
1.4200617e-06
1.4200512e-06
1.4200414e-06
1.4200344e-06
1.4200309e-06
1.4200291e-06
1.4200218e-06
1.4199908e-06
1.4198997e-06
1.419702e-06
1.4197151e-06
1.4199176e-06
1.4200016e-06
1.4200264e-06
1.4200303e-06
1.4200305e-06
1.420033e-06
1.4200392e-06
1.4200483e-06
1.4200581e-06
1.4200665e-06
1.4200712e-06
1.4200711e-06
1.4200663e-06
1.4200578e-06
1.4200478e-06
1.4200386e-06
1.4200323e-06
1.4200296e-06
1.4200294e-06
1.4200256e-06
1.4200018e-06
1.4199211e-06
1.4197267e-06
9.8802831e-07
9.8818676e-07
9.8825447e-07
9.8827718e-07
9.8828349e-07
9.8828558e-07
9.8828765e-07
9.8829071e-07
9.8829457e-07
9.8829855e-07
9.8830182e-07
9.8830368e-07
9.8830372e-07
9.8830193e-07
9.8829874e-07
9.8829484e-07
9.8829105e-07
9.8828804e-07
9.8828595e-07
9.8828353e-07
9.8827599e-07
9.8825007e-07
9.8817689e-07
9.88015e-07
9.8802283e-07
9.881878e-07
9.8825662e-07
9.8827855e-07
9.8828399e-07
9.8828539e-07
9.8828685e-07
9.8828934e-07
9.8829268e-07
9.882962e-07
9.8829913e-07
9.8830077e-07
9.8830073e-07
9.8829901e-07
9.88296e-07
9.8829239e-07
9.8828898e-07
9.8828641e-07
9.8828488e-07
9.8828344e-07
9.882781e-07
9.8825682e-07
9.8819033e-07
9.8803075e-07
6.5054137e-07
6.5066355e-07
6.5071415e-07
6.5073107e-07
6.5073615e-07
6.5073794e-07
6.5073911e-07
6.5074031e-07
6.5074159e-07
6.507428e-07
6.5074375e-07
6.5074428e-07
6.507443e-07
6.5074381e-07
6.5074291e-07
6.5074174e-07
6.5074051e-07
6.5073934e-07
6.5073815e-07
6.5073617e-07
6.5073034e-07
6.5071147e-07
6.5065756e-07
6.5053335e-07
6.5053779e-07
6.5066383e-07
6.5071518e-07
6.5073169e-07
6.5073628e-07
6.5073765e-07
6.5073846e-07
6.5073932e-07
6.5074029e-07
6.5074124e-07
6.5074199e-07
6.5074239e-07
6.5074237e-07
6.5074192e-07
6.5074112e-07
6.5074013e-07
6.5073912e-07
6.507382e-07
6.5073736e-07
6.5073596e-07
6.5073143e-07
6.5071534e-07
6.5066545e-07
6.5054272e-07
4.0811946e-07
4.0820704e-07
4.0824171e-07
4.0825289e-07
4.0825626e-07
4.0825744e-07
4.0825807e-07
4.0825852e-07
4.0825888e-07
4.0825914e-07
4.0825931e-07
4.082594e-07
4.0825941e-07
4.0825935e-07
4.082592e-07
4.0825896e-07
4.0825863e-07
4.082582e-07
4.0825757e-07
4.0825627e-07
4.082525e-07
4.0824024e-07
4.0820373e-07
4.0811504e-07
4.0811738e-07
4.0820706e-07
4.0824217e-07
4.0825315e-07
4.0825625e-07
4.082572e-07
4.0825763e-07
4.0825789e-07
4.0825807e-07
4.0825818e-07
4.0825825e-07
4.0825827e-07
4.0825826e-07
4.0825821e-07
4.0825812e-07
4.0825798e-07
4.0825777e-07
4.0825749e-07
4.0825704e-07
4.0825607e-07
4.08253e-07
4.0824226e-07
4.0820798e-07
4.0812017e-07
2.4607688e-07
2.4613519e-07
2.4615709e-07
2.461638e-07
2.4616576e-07
2.4616644e-07
2.4616676e-07
2.4616693e-07
2.4616701e-07
2.4616701e-07
2.4616699e-07
2.4616698e-07
2.4616698e-07
2.4616701e-07
2.4616705e-07
2.4616705e-07
2.4616699e-07
2.4616683e-07
2.4616651e-07
2.4616578e-07
2.4616362e-07
2.4615638e-07
2.4613354e-07
2.4607467e-07
2.4607581e-07
2.4613516e-07
2.4615728e-07
2.4616389e-07
2.4616571e-07
2.4616627e-07
2.4616649e-07
2.4616656e-07
2.4616654e-07
2.4616647e-07
2.4616639e-07
2.4616634e-07
2.4616633e-07
2.4616637e-07
2.4616643e-07
2.4616649e-07
2.4616649e-07
2.4616641e-07
2.4616618e-07
2.4616561e-07
2.4616381e-07
2.4615732e-07
2.4613562e-07
2.4607724e-07
1.4388244e-07
1.4391858e-07
1.4393138e-07
1.4393507e-07
1.439361e-07
1.4393646e-07
1.4393662e-07
1.4393669e-07
1.439367e-07
1.4393667e-07
1.4393663e-07
1.4393661e-07
1.4393661e-07
1.4393664e-07
1.4393669e-07
1.4393673e-07
1.4393673e-07
1.4393666e-07
1.439365e-07
1.4393613e-07
1.4393501e-07
1.4393107e-07
1.4391784e-07
1.4388144e-07
1.4388194e-07
1.4391855e-07
1.4393145e-07
1.439351e-07
1.4393607e-07
1.4393636e-07
1.4393647e-07
1.4393648e-07
1.4393644e-07
1.4393637e-07
1.439363e-07
1.4393626e-07
1.4393625e-07
1.4393629e-07
1.4393636e-07
1.4393642e-07
1.4393645e-07
1.4393643e-07
1.4393631e-07
1.4393601e-07
1.4393505e-07
1.4393146e-07
1.4391875e-07
1.438826e-07
8.249559e-08
8.2516486e-08
8.2523421e-08
8.2525294e-08
8.2525794e-08
8.2525969e-08
8.2526051e-08
8.2526085e-08
8.2526085e-08
8.2526064e-08
8.2526039e-08
8.2526023e-08
8.2526025e-08
8.2526045e-08
8.2526074e-08
8.2526099e-08
8.2526103e-08
8.2526073e-08
8.2525993e-08
8.2525811e-08
8.2525277e-08
8.2523306e-08
8.2516197e-08
8.2495196e-08
8.2495389e-08
8.2516474e-08
8.2523448e-08
8.25253e-08
8.252577e-08
8.2525914e-08
8.2525967e-08
8.2525973e-08
8.2525947e-08
8.2525905e-08
8.2525863e-08
8.2525837e-08
8.2525835e-08
8.2525857e-08
8.2525895e-08
8.2525933e-08
8.2525954e-08
8.2525944e-08
8.2525887e-08
8.252574e-08
8.2525272e-08
8.2523441e-08
8.2516551e-08
8.2495665e-08
4.7231796e-08
4.7243054e-08
4.7246512e-08
4.7247385e-08
4.7247611e-08
4.7247694e-08
4.7247737e-08
4.7247756e-08
4.7247758e-08
4.7247749e-08
4.7247737e-08
4.724773e-08
4.7247731e-08
4.724774e-08
4.7247755e-08
4.7247766e-08
4.7247767e-08
4.724775e-08
4.7247709e-08
4.7247624e-08
4.7247387e-08
4.7246479e-08
4.7242958e-08
4.7231664e-08
4.7231728e-08
4.7243053e-08
4.7246524e-08
4.7247386e-08
4.7247597e-08
4.7247665e-08
4.7247692e-08
4.7247697e-08
4.7247685e-08
4.7247663e-08
4.7247638e-08
4.7247625e-08
4.7247624e-08
4.7247635e-08
4.7247657e-08
4.7247676e-08
4.7247686e-08
4.7247679e-08
4.724765e-08
4.724758e-08
4.7247369e-08
4.7246514e-08
4.7243075e-08
4.7231828e-08
2.7818557e-08
2.7824194e-08
2.7825764e-08
2.7826134e-08
2.782623e-08
2.7826271e-08
2.7826294e-08
2.7826306e-08
2.782631e-08
2.7826306e-08
2.7826298e-08
2.7826295e-08
2.7826295e-08
2.78263e-08
2.782631e-08
2.7826315e-08
2.7826313e-08
2.7826302e-08
2.782628e-08
2.7826239e-08
2.782614e-08
2.782576e-08
2.782417e-08
2.7818525e-08
2.7818542e-08
2.7824197e-08
2.782577e-08
2.7826134e-08
2.7826223e-08
2.7826255e-08
2.782627e-08
2.7826274e-08
2.7826268e-08
2.7826249e-08
2.782621e-08
2.78262e-08
2.78262e-08
2.7826208e-08
2.7826246e-08
2.7826263e-08
2.7826267e-08
2.7826262e-08
2.7826246e-08
2.7826213e-08
2.7826123e-08
2.7825761e-08
2.7824199e-08
2.781857e-08
1.745655e-08
1.74592e-08
1.7459847e-08
1.7459989e-08
1.7460029e-08
1.7460051e-08
1.7460065e-08
1.7460073e-08
1.7460075e-08
1.7460067e-08
1.7460038e-08
1.7460035e-08
1.7460035e-08
1.746004e-08
1.746007e-08
1.7460079e-08
1.7460077e-08
1.746007e-08
1.7460057e-08
1.7460036e-08
1.7459995e-08
1.7459851e-08
1.7459199e-08
1.7456548e-08
1.745655e-08
1.7459205e-08
1.7459851e-08
1.7459989e-08
1.7460026e-08
1.7460042e-08
1.7460051e-08
1.7460053e-08
1.746004e-08
1.7459982e-08
1.7459789e-08
1.7459771e-08
1.7459771e-08
1.7459788e-08
1.745998e-08
1.7460037e-08
1.7460048e-08
1.7460045e-08
1.7460036e-08
1.7460019e-08
1.7459982e-08
1.7459843e-08
1.7459201e-08
1.7456555e-08
1.1870117e-08
1.1871356e-08
1.1871608e-08
1.187166e-08
1.1871679e-08
1.1871691e-08
1.1871701e-08
1.1871706e-08
1.18717e-08
1.1871656e-08
1.18715e-08
1.1871488e-08
1.1871488e-08
1.1871501e-08
1.1871658e-08
1.1871702e-08
1.1871709e-08
1.1871704e-08
1.1871696e-08
1.1871684e-08
1.1871665e-08
1.1871612e-08
1.187136e-08
1.1870121e-08
1.1870121e-08
1.187136e-08
1.1871611e-08
1.1871661e-08
1.1871677e-08
1.1871686e-08
1.1871691e-08
1.1871687e-08
1.1871632e-08
1.187137e-08
1.187034e-08
1.18703e-08
1.18703e-08
1.1870339e-08
1.1871368e-08
1.1871629e-08
1.1871684e-08
1.1871688e-08
1.1871682e-08
1.1871672e-08
1.1871655e-08
1.1871605e-08
1.1871355e-08
1.1870119e-08
8.6085906e-09
8.6092236e-09
8.6093268e-09
8.6093481e-09
8.6093586e-09
8.6093668e-09
8.6093731e-09
8.6093728e-09
8.6093336e-09
8.6091361e-09
8.6083684e-09
8.6083417e-09
8.6083419e-09
8.608369e-09
8.6091374e-09
8.6093354e-09
8.609375e-09
8.6093759e-09
8.6093701e-09
8.6093622e-09
8.609352e-09
8.6093308e-09
8.6092277e-09
8.608595e-09
8.6085945e-09
8.6092269e-09
8.609329e-09
8.6093487e-09
8.6093571e-09
8.6093631e-09
8.6093649e-09
8.6093395e-09
8.6091093e-09
8.6080663e-09
8.606056e-09
8.6061089e-09
8.6061087e-09
8.6060552e-09
8.6080648e-09
8.6091075e-09
8.6093371e-09
8.6093621e-09
8.6093598e-09
8.6093534e-09
8.6093446e-09
8.6093247e-09
8.6092227e-09
8.608591e-09
6.466814e-09
6.4671841e-09
6.4672336e-09
6.4672443e-09
6.4672511e-09
6.4672568e-09
6.4672602e-09
6.4672444e-09
6.4670769e-09
6.4663149e-09
6.4649973e-09
6.4650391e-09
6.4650393e-09
6.4649976e-09
6.4663159e-09
6.4670783e-09
6.4672461e-09
6.4672623e-09
6.4672593e-09
6.4672538e-09
6.4672473e-09
6.4672368e-09
6.4671873e-09
6.4668175e-09
6.4668172e-09
6.4671866e-09
6.4672353e-09
6.4672447e-09
6.46725e-09
6.4672538e-09
6.4672494e-09
6.4671595e-09
6.4663012e-09
6.4648824e-09
6.4655324e-09
6.4656022e-09
6.465602e-09
6.4655318e-09
6.4648812e-09
6.4662998e-09
6.4671577e-09
6.4672472e-09
6.4672513e-09
6.4672472e-09
6.4672417e-09
6.467232e-09
6.4671833e-09
6.4668141e-09
4.9274673e-09
4.9277064e-09
4.9277342e-09
4.9277406e-09
4.9277454e-09
4.9277493e-09
4.927748e-09
4.9276863e-09
4.9270564e-09
4.9260598e-09
4.9265683e-09
4.926621e-09
4.9266211e-09
4.9265687e-09
4.9260606e-09
4.9270576e-09
4.9276876e-09
4.9277497e-09
4.9277513e-09
4.9277475e-09
4.9277429e-09
4.9277367e-09
4.9277089e-09
4.9274699e-09
4.9274697e-09
4.9277083e-09
4.9277355e-09
4.927741e-09
4.9277445e-09
4.9277463e-09
4.9277283e-09
4.9274758e-09
4.9260611e-09
4.9265376e-09
4.9269626e-09
4.9270177e-09
4.9270175e-09
4.9269622e-09
4.9265369e-09
4.92606e-09
4.9274744e-09
4.9277266e-09
4.9277444e-09
4.9277424e-09
4.9277386e-09
4.927733e-09
4.9277058e-09
4.9274672e-09
3.7710946e-09
3.7712567e-09
3.7712738e-09
3.771278e-09
3.7712814e-09
3.7712837e-09
3.7712727e-09
3.7710937e-09
3.7700596e-09
3.7704347e-09
3.770757e-09
3.7707967e-09
3.7707968e-09
3.7707573e-09
3.7704354e-09
3.7700605e-09
3.7710948e-09
3.771274e-09
3.7712851e-09
3.771283e-09
3.7712798e-09
3.7712756e-09
3.7712586e-09
3.7710966e-09
3.7710964e-09
3.7712581e-09
3.7712747e-09
3.7712782e-09
3.7712806e-09
3.7712795e-09
3.7712319e-09
3.7707283e-09
3.7704039e-09
3.7707509e-09
3.7709717e-09
3.7710037e-09
3.7710035e-09
3.7709713e-09
3.7707503e-09
3.7704032e-09
3.7707273e-09
3.7712306e-09
3.771278e-09
3.771279e-09
3.7712765e-09
3.7712728e-09
3.7712562e-09
3.7710945e-09
2.8889285e-09
2.8890403e-09
2.8890512e-09
2.889054e-09
2.8890564e-09
2.8890565e-09
2.8890243e-09
2.8886577e-09
2.8884347e-09
2.8886971e-09
2.8888582e-09
2.8888803e-09
2.8888803e-09
2.8888585e-09
2.8886976e-09
2.8884354e-09
2.8886585e-09
2.8890253e-09
2.8890576e-09
2.8890576e-09
2.8890554e-09
2.8890526e-09
2.8890417e-09
2.8889301e-09
2.8889299e-09
2.8890413e-09
2.8890518e-09
2.8890542e-09
2.8890555e-09
2.8890484e-09
2.8889186e-09
2.8881515e-09
2.8886657e-09
2.888856e-09
2.888953e-09
2.8889675e-09
2.8889674e-09
2.8889527e-09
2.8888556e-09
2.8886651e-09
2.8881507e-09
2.8889177e-09
2.8890473e-09
2.8890543e-09
2.8890529e-09
2.8890504e-09
2.8890399e-09
2.8889285e-09
2.2135035e-09
2.2135809e-09
2.213588e-09
2.2135899e-09
2.2135915e-09
2.2135873e-09
2.2134955e-09
2.2129319e-09
2.2133247e-09
2.2134629e-09
2.2135305e-09
2.2135401e-09
2.2135402e-09
2.2135307e-09
2.2134633e-09
2.2133252e-09
2.2129325e-09
2.2134962e-09
2.2135881e-09
2.2135924e-09
2.213591e-09
2.213589e-09
2.213582e-09
2.2135046e-09
2.2135045e-09
2.2135817e-09
2.2135884e-09
2.21359e-09
2.2135903e-09
2.2135711e-09
2.2132998e-09
2.2131476e-09
2.2134409e-09
2.2135282e-09
2.2135638e-09
2.2135691e-09
2.2135691e-09
2.2135636e-09
2.2135278e-09
2.2134405e-09
2.2131471e-09
2.2132991e-09
2.2135703e-09
2.2135894e-09
2.213589e-09
2.2135874e-09
2.2135806e-09
2.2135034e-09
1.6964162e-09
1.69647e-09
1.6964746e-09
1.696476e-09
1.6964766e-09
1.6964638e-09
1.6962666e-09
1.6961627e-09
1.6963793e-09
1.6964398e-09
1.6964635e-09
1.6964669e-09
1.696467e-09
1.6964637e-09
1.6964401e-09
1.6963797e-09
1.6961632e-09
1.6962672e-09
1.6964644e-09
1.6964773e-09
1.6964767e-09
1.6964754e-09
1.6964709e-09
1.6964171e-09
1.696417e-09
1.6964706e-09
1.696475e-09
1.696476e-09
1.6964747e-09
1.6964272e-09
1.6959943e-09
1.6962936e-09
1.6964279e-09
1.6964613e-09
1.6964722e-09
1.6964738e-09
1.6964738e-09
1.6964721e-09
1.696461e-09
1.6964276e-09
1.6962932e-09
1.6959937e-09
1.6964265e-09
1.696474e-09
1.6964752e-09
1.6964741e-09
1.6964698e-09
1.6964162e-09
1.3006443e-09
1.3006817e-09
1.3006847e-09
1.3006856e-09
1.3006851e-09
1.300652e-09
1.3003349e-09
1.3005616e-09
1.3006569e-09
1.300679e-09
1.3006859e-09
1.300687e-09
1.3006871e-09
1.3006861e-09
1.3006792e-09
1.3006572e-09
1.300562e-09
1.3003354e-09
1.3006525e-09
1.3006857e-09
1.3006862e-09
1.3006853e-09
1.3006823e-09
1.300645e-09
1.300645e-09
1.3006821e-09
1.300685e-09
1.3006856e-09
1.3006831e-09
1.3006285e-09
1.3004639e-09
1.3006216e-09
1.3006735e-09
1.3006842e-09
1.300687e-09
1.3006874e-09
1.3006874e-09
1.3006869e-09
1.300684e-09
1.3006732e-09
1.3006212e-09
1.3004634e-09
1.300628e-09
1.3006825e-09
1.300685e-09
1.3006843e-09
1.3006815e-09
1.3006443e-09
9.979475e-10
9.9797341e-10
9.9797538e-10
9.9797598e-10
9.9797453e-10
9.9793625e-10
9.9781949e-10
9.9793481e-10
9.9797003e-10
9.9797684e-10
9.9797864e-10
9.9797897e-10
9.9797901e-10
9.9797876e-10
9.9797702e-10
9.9797023e-10
9.9793509e-10
9.9781984e-10
9.9793661e-10
9.9797493e-10
9.9797643e-10
9.9797584e-10
9.9797391e-10
9.9794801e-10
9.9794797e-10
9.9797378e-10
9.979756e-10
9.9797589e-10
9.9796972e-10
9.9786474e-10
9.9788457e-10
9.9795727e-10
9.9797442e-10
9.9797737e-10
9.97978e-10
9.9797806e-10
9.9797804e-10
9.9797789e-10
9.9797721e-10
9.9797423e-10
9.9795701e-10
9.9788423e-10
9.9786435e-10
9.9796925e-10
9.9797541e-10
9.9797511e-10
9.9797327e-10
9.9794743e-10
7.6737632e-10
7.6739431e-10
7.673956e-10
7.673959e-10
7.6739184e-10
7.6731566e-10
7.673338e-10
7.67385e-10
7.6739616e-10
7.6739801e-10
7.6739847e-10
7.6739861e-10
7.6739864e-10
7.6739855e-10
7.6739813e-10
7.673963e-10
7.6738521e-10
7.6733406e-10
7.6731595e-10
7.6739214e-10
7.6739624e-10
7.6739593e-10
7.6739468e-10
7.6737671e-10
7.6737668e-10
7.6739458e-10
7.6739577e-10
7.6739561e-10
7.6738013e-10
7.6721072e-10
7.6736311e-10
7.6739187e-10
7.6739681e-10
7.6739756e-10
7.673977e-10
7.673977e-10
7.6739768e-10
7.6739761e-10
7.6739744e-10
7.6739668e-10
7.6739167e-10
7.6736285e-10
7.6721042e-10
7.6737976e-10
7.6739522e-10
7.6739538e-10
7.6739419e-10
7.6737626e-10
5.9240199e-10
5.9241449e-10
5.9241535e-10
5.9241531e-10
5.9240458e-10
5.9228147e-10
5.9239421e-10
5.9241372e-10
5.9241688e-10
5.9241739e-10
5.9241754e-10
5.9241763e-10
5.9241764e-10
5.924176e-10
5.9241746e-10
5.9241699e-10
5.9241389e-10
5.923944e-10
5.9228169e-10
5.9240481e-10
5.9241557e-10
5.9241558e-10
5.9241477e-10
5.9240229e-10
5.9240226e-10
5.9241469e-10
5.9241547e-10
5.9241516e-10
5.9240131e-10
5.9233806e-10
5.9240551e-10
5.9241537e-10
5.9241667e-10
5.9241687e-10
5.9241692e-10
5.9241692e-10
5.924169e-10
5.9241686e-10
5.924168e-10
5.9241658e-10
5.9241523e-10
5.9240529e-10
5.9233782e-10
5.9240102e-10
5.9241487e-10
5.9241516e-10
5.924144e-10
5.9240195e-10
4.5986254e-10
4.5987124e-10
4.5987181e-10
4.5987165e-10
4.5986209e-10
4.598177e-10
4.5986583e-10
4.598723e-10
4.5987318e-10
4.5987336e-10
4.5987344e-10
4.5987351e-10
4.5987352e-10
4.5987348e-10
4.5987341e-10
4.5987326e-10
4.5987244e-10
4.5986598e-10
4.5981785e-10
4.5986226e-10
4.5987186e-10
4.5987198e-10
4.5987144e-10
4.5986276e-10
4.5986274e-10
4.5987139e-10
4.598719e-10
4.598714e-10
4.5985785e-10
4.598434e-10
4.5986952e-10
4.5987253e-10
4.5987287e-10
4.5987295e-10
4.5987298e-10
4.5987299e-10
4.5987297e-10
4.5987293e-10
4.5987289e-10
4.598728e-10
4.5987242e-10
4.5986934e-10
4.5984321e-10
4.5985765e-10
4.5987118e-10
4.5987165e-10
4.5987118e-10
4.5986252e-10
3.5958909e-10
3.5959516e-10
3.5959554e-10
3.5959523e-10
3.5958568e-10
3.5957637e-10
3.5959437e-10
3.595963e-10
3.595966e-10
3.595967e-10
3.5959676e-10
3.5959681e-10
3.5959681e-10
3.5959679e-10
3.5959674e-10
3.5959666e-10
3.5959642e-10
3.5959449e-10
3.5957649e-10
3.5958581e-10
3.595954e-10
3.5959568e-10
3.5959532e-10
3.5958926e-10
3.5958925e-10
3.5959528e-10
3.5959559e-10
3.595942e-10
3.5956468e-10
3.5958454e-10
3.5959532e-10
3.5959623e-10
3.5959635e-10
3.595964e-10
3.5959642e-10
3.5959643e-10
3.5959642e-10
3.5959638e-10
3.5959636e-10
3.5959628e-10
3.5959614e-10
3.5959519e-10
3.5958441e-10
3.5956454e-10
3.5959404e-10
3.5959539e-10
3.5959512e-10
3.5958908e-10
2.8381102e-10
2.8381525e-10
2.8381549e-10
2.8381454e-10
2.8379285e-10
2.8380825e-10
2.8381558e-10
2.8381617e-10
2.838163e-10
2.8381638e-10
2.8381643e-10
2.8381646e-10
2.8381646e-10
2.8381645e-10
2.838164e-10
2.8381635e-10
2.8381625e-10
2.8381566e-10
2.8380833e-10
2.8379295e-10
2.8381467e-10
2.8381561e-10
2.8381538e-10
2.8381115e-10
2.8381115e-10
2.8381536e-10
2.8381549e-10
2.8381175e-10
2.8376469e-10
2.8381168e-10
2.8381576e-10
2.8381606e-10
2.8381612e-10
2.8381616e-10
2.8381617e-10
2.8381619e-10
2.8381617e-10
2.8381614e-10
2.8381613e-10
2.8381606e-10
2.8381598e-10
2.8381567e-10
2.8381158e-10
2.8376459e-10
2.8381163e-10
2.8381534e-10
2.8381523e-10
2.8381102e-10
2.2660472e-10
2.2660767e-10
2.266078e-10
2.2660517e-10
2.2657109e-10
2.2660542e-10
2.2660816e-10
2.2660836e-10
2.2660845e-10
2.266085e-10
2.2660854e-10
2.2660856e-10
2.2660856e-10
2.2660855e-10
2.2660852e-10
2.2660848e-10
2.2660842e-10
2.2660821e-10
2.2660548e-10
2.2657117e-10
2.2660528e-10
2.2660789e-10
2.2660778e-10
2.2660482e-10
2.2660482e-10
2.2660777e-10
2.2660782e-10
2.2660475e-10
2.265894e-10
2.2660681e-10
2.2660816e-10
2.2660827e-10
2.2660831e-10
2.2660834e-10
2.2660835e-10
2.2660836e-10
2.2660835e-10
2.2660833e-10
2.2660832e-10
2.2660826e-10
2.2660822e-10
2.2660809e-10
2.2660674e-10
2.2658932e-10
2.2660467e-10
2.2660772e-10
2.2660767e-10
2.2660472e-10
1.8346305e-10
1.8346511e-10
1.834652e-10
1.8346305e-10
1.8345242e-10
1.8346464e-10
1.8346554e-10
1.8346563e-10
1.8346569e-10
1.8346573e-10
1.8346575e-10
1.8346577e-10
1.8346576e-10
1.8346576e-10
1.8346574e-10
1.8346571e-10
1.8346567e-10
1.8346557e-10
1.8346469e-10
1.8345249e-10
1.8346313e-10
1.8346526e-10
1.834652e-10
1.8346313e-10
1.8346312e-10
1.8346519e-10
1.8346522e-10
1.834631e-10
1.8345938e-10
1.834651e-10
1.8346551e-10
1.8346555e-10
1.8346558e-10
1.834656e-10
1.8346561e-10
1.8346562e-10