/*--------------------------------*- C++ -*----------------------------------*\
| =========                 |                                                 |
| \\      /  F ield         | OpenFOAM: The Open Source CFD Toolbox           |
|  \\    /   O peration     | Version:  v1912                                 |
|   \\  /    A nd           | Website:  www.openfoam.com                      |
|    \\/     M anipulation  |                                                 |
\*---------------------------------------------------------------------------*/
FoamFile
{
    version     2.0;
    format      ascii;
    class       volScalarField;
    location    "2";
    object      k;
}
// * * * * * * * * * * * * * * * * * * * * * * * * * * * * * * * * * * * * * //

dimensions      [0 2 -2 0 0 0 0];


internalField   nonuniform List<scalar> 
255504
(
6.6806419e-05
6.6791243e-05
6.6797508e-05
6.6821336e-05
6.6839716e-05
6.6853394e-05
6.6863008e-05
6.6869204e-05
6.6872722e-05
6.687437e-05
6.6874936e-05
6.6875048e-05
6.6875058e-05
6.6874968e-05
6.6874431e-05
6.6872821e-05
6.6869358e-05
6.6863232e-05
6.6853708e-05
6.6840137e-05
6.6821879e-05
6.6798182e-05
6.6792149e-05
6.6807309e-05
6.6821093e-05
6.6833744e-05
6.6845201e-05
6.6855206e-05
6.6863412e-05
6.6869539e-05
6.6873497e-05
6.6875464e-05
6.6875871e-05
6.6875332e-05
6.68745e-05
6.6873924e-05
6.6873911e-05
6.6874461e-05
6.6875259e-05
6.6875754e-05
6.6875287e-05
6.6873247e-05
6.6869198e-05
6.6862967e-05
6.6854645e-05
6.6844516e-05
6.6832923e-05
6.6820116e-05
5.9768717e-05
5.9753456e-05
5.9765096e-05
5.978807e-05
5.9804942e-05
5.9817262e-05
5.9825749e-05
5.9831009e-05
5.9833752e-05
5.9834789e-05
5.9834926e-05
5.9834815e-05
5.9834823e-05
5.9834951e-05
5.9834837e-05
5.9833833e-05
5.9831137e-05
5.982594e-05
5.9817534e-05
5.9805312e-05
5.9788558e-05
5.9765723e-05
5.975422e-05
5.9769542e-05
5.9783807e-05
5.9796531e-05
5.9807801e-05
5.9817502e-05
5.9825353e-05
5.9831091e-05
5.9834635e-05
5.9836175e-05
5.9836174e-05
5.9835277e-05
5.983418e-05
5.9833463e-05
5.9833453e-05
5.9834149e-05
5.9835218e-05
5.9836077e-05
5.9836027e-05
5.9834421e-05
5.9830796e-05
5.9824963e-05
5.9817007e-05
5.9807195e-05
5.9795817e-05
5.9782991e-05
5.0156628e-05
5.0149787e-05
5.0168281e-05
5.0185141e-05
5.0198852e-05
5.0209143e-05
5.0216115e-05
5.0220147e-05
5.0221878e-05
5.0222116e-05
5.0221695e-05
5.0221294e-05
5.0221299e-05
5.0221712e-05
5.0222151e-05
5.0221937e-05
5.0220243e-05
5.0216263e-05
5.0209359e-05
5.0199155e-05
5.0185549e-05
5.0168816e-05
5.0150387e-05
5.0157308e-05
5.0174256e-05
5.0187322e-05
5.019831e-05
5.0207559e-05
5.0214899e-05
5.0220092e-05
5.0223067e-05
5.0224036e-05
5.0223493e-05
5.0222129e-05
5.0220688e-05
5.0219788e-05
5.0219781e-05
5.0220666e-05
5.0222088e-05
5.0223422e-05
5.0223924e-05
5.0222901e-05
5.0219855e-05
5.0214578e-05
5.0207144e-05
5.0197799e-05
5.0186725e-05
5.0173606e-05
3.9370437e-05
3.9369374e-05
3.9384103e-05
3.9397145e-05
3.9407876e-05
3.9415914e-05
3.9421205e-05
3.9424024e-05
3.9424924e-05
3.9424635e-05
3.9423912e-05
3.9423377e-05
3.942338e-05
3.9423923e-05
3.9424658e-05
3.9424965e-05
3.9424091e-05
3.942131e-05
3.941607e-05
3.9408099e-05
3.939745e-05
3.93845e-05
3.936985e-05
3.9370957e-05
3.9384908e-05
3.939623e-05
3.940578e-05
3.9413722e-05
3.94199e-05
3.9424128e-05
3.942637e-05
3.9426842e-05
3.9426008e-05
3.9424507e-05
3.942302e-05
3.9422113e-05
3.9422109e-05
3.9423006e-05
3.942448e-05
3.9425961e-05
3.9426765e-05
3.9426253e-05
3.9423956e-05
3.9419661e-05
3.9413404e-05
3.9405381e-05
3.939576e-05
3.9384401e-05
2.9310976e-05
2.931155e-05
2.9324422e-05
2.9335498e-05
2.9344458e-05
2.935097e-05
2.9354957e-05
2.935667e-05
2.9356656e-05
2.9355653e-05
2.9354436e-05
2.9353646e-05
2.9353648e-05
2.9354441e-05
2.9355664e-05
2.9356678e-05
2.9356709e-05
2.9355022e-05
2.9351073e-05
2.9344614e-05
2.9335721e-05
2.9324727e-05
2.9311937e-05
2.9311404e-05
2.9322742e-05
2.933245e-05
2.9340884e-05
2.9347962e-05
2.9353415e-05
2.9357002e-05
2.935866e-05
2.9358598e-05
2.9357286e-05
2.9355388e-05
2.9353614e-05
2.9352556e-05
2.9352555e-05
2.9353608e-05
2.9355375e-05
2.9357261e-05
2.9358552e-05
2.9358585e-05
2.9356885e-05
2.9353243e-05
2.9347722e-05
2.9340569e-05
2.9332066e-05
2.9322323e-05
2.1380004e-05
2.1381223e-05
2.139265e-05
2.1402349e-05
2.1410035e-05
2.1415411e-05
2.1418409e-05
2.1419275e-05
2.1418555e-05
2.1416994e-05
2.1415389e-05
2.1414398e-05
2.1414398e-05
2.1415389e-05
2.1416997e-05
2.1418563e-05
2.1419295e-05
2.1418446e-05
2.1415476e-05
2.1410141e-05
2.1402514e-05
2.139289e-05
2.138155e-05
2.1380382e-05
2.1389638e-05
2.1397945e-05
2.1405396e-05
2.1411744e-05
2.141662e-05
2.1419719e-05
2.1420942e-05
2.1420475e-05
2.1418794e-05
2.1416581e-05
2.1414572e-05
2.141339e-05
2.141339e-05
2.1414572e-05
2.1416577e-05
2.1418784e-05
2.1420451e-05
2.1420896e-05
2.141964e-05
2.1416495e-05
2.1411558e-05
2.1405138e-05
2.1397616e-05
2.1389268e-05
1.6328297e-05
1.6330065e-05
1.63407e-05
1.6349655e-05
1.6356619e-05
1.636131e-05
1.6363654e-05
1.6363893e-05
1.6362586e-05
1.6360519e-05
1.6358534e-05
1.6357339e-05
1.6357338e-05
1.635853e-05
1.6360514e-05
1.6362584e-05
1.6363899e-05
1.6363673e-05
1.6361351e-05
1.6356695e-05
1.6349782e-05
1.6340902e-05
1.6330366e-05
1.6328679e-05
1.6336493e-05
1.6343907e-05
1.635081e-05
1.6356807e-05
1.6361427e-05
1.6364287e-05
1.6365235e-05
1.636444e-05
1.6362397e-05
1.6359832e-05
1.6357542e-05
1.6356205e-05
1.6356207e-05
1.6357546e-05
1.6359835e-05
1.6362396e-05
1.6364429e-05
1.6365205e-05
1.6364228e-05
1.6361326e-05
1.6356647e-05
1.6350576e-05
1.6343593e-05
1.6336122e-05
1.5042916e-05
1.5045997e-05
1.5057594e-05
1.5067234e-05
1.5074624e-05
1.5079423e-05
1.5081495e-05
1.5081091e-05
1.507888e-05
1.507584e-05
1.5073038e-05
1.5071378e-05
1.5071374e-05
1.5073029e-05
1.5075828e-05
1.5078869e-05
1.5081086e-05
1.5081503e-05
1.5079453e-05
1.5074689e-05
1.5067351e-05
1.5057794e-05
1.5046334e-05
1.5043469e-05
1.5050911e-05
1.5058635e-05
1.5066185e-05
1.5072921e-05
1.5078154e-05
1.5081319e-05
1.5082161e-05
1.5080849e-05
1.5077993e-05
1.5074519e-05
1.5071454e-05
1.5069672e-05
1.5069675e-05
1.5071462e-05
1.507453e-05
1.5078002e-05
1.5080847e-05
1.5082138e-05
1.5081264e-05
1.5078049e-05
1.5072747e-05
1.5065919e-05
1.5058256e-05
1.5050417e-05
1.8158658e-05
1.8164511e-05
1.8179075e-05
1.8191049e-05
1.8200243e-05
1.8206113e-05
1.8208366e-05
1.8207282e-05
1.8203764e-05
1.8199174e-05
1.8195016e-05
1.819257e-05
1.8192564e-05
1.8195001e-05
1.8199152e-05
1.8203742e-05
1.8207267e-05
1.8208368e-05
1.8206143e-05
1.8200316e-05
1.8191185e-05
1.8179301e-05
1.8164929e-05
1.8159778e-05
1.8168373e-05
1.8178004e-05
1.8187693e-05
1.8196485e-05
1.8203362e-05
1.8207466e-05
1.8208375e-05
1.8206295e-05
1.8202069e-05
1.8197005e-05
1.8192562e-05
1.8189987e-05
1.8189993e-05
1.8192577e-05
1.8197025e-05
1.8202087e-05
1.8206301e-05
1.8208355e-05
1.8207401e-05
1.8203231e-05
1.8196259e-05
1.8187339e-05
1.8177475e-05
1.8167584e-05
2.7354832e-05
2.7368782e-05
2.738817e-05
2.7403609e-05
2.7415483e-05
2.7422977e-05
2.7425589e-05
2.7423652e-05
2.7418406e-05
2.7411749e-05
2.7405781e-05
2.7402283e-05
2.7402276e-05
2.7405759e-05
2.7411718e-05
2.7418374e-05
2.7423629e-05
2.7425589e-05
2.7423016e-05
2.7415577e-05
2.7403769e-05
2.7388369e-05
2.736903e-05
2.7358506e-05
2.7370779e-05
2.73842e-05
2.7397337e-05
2.7409163e-05
2.7418379e-05
2.7423802e-05
2.7424823e-05
2.7421712e-05
2.741564e-05
2.7408438e-05
2.7402147e-05
2.7398509e-05
2.7398517e-05
2.740217e-05
2.7408469e-05
2.741567e-05
2.7421726e-05
2.7424801e-05
2.7423719e-05
2.7418202e-05
2.7408848e-05
2.7396825e-05
2.7383367e-05
2.7369168e-05
4.3430956e-05
4.3452174e-05
4.3471132e-05
4.3486885e-05
4.3499004e-05
4.3506641e-05
4.3509339e-05
4.3507475e-05
4.3502321e-05
4.3495773e-05
4.348991e-05
4.3486476e-05
4.3486469e-05
4.348989e-05
4.3495747e-05
4.3502295e-05
4.3507462e-05
4.3509352e-05
4.3506698e-05
4.3499118e-05
4.3487029e-05
4.3470982e-05
4.344924e-05
4.342794e-05
4.3448128e-05
4.346534e-05
4.3479937e-05
4.3492267e-05
4.3501617e-05
4.3507052e-05
4.3508073e-05
4.3504995e-05
4.3499002e-05
4.349191e-05
4.3485728e-05
4.3482156e-05
4.3482163e-05
4.3485749e-05
4.3491939e-05
4.3499027e-05
4.3505002e-05
4.3508039e-05
4.3506946e-05
4.3501397e-05
4.3491877e-05
4.3479287e-05
4.3464178e-05
4.3444813e-05
6.2936807e-05
6.2953539e-05
6.2966183e-05
6.2975541e-05
6.2982202e-05
6.2986471e-05
6.2988578e-05
6.2988875e-05
6.2987906e-05
6.2986333e-05
6.2984815e-05
6.2983899e-05
6.2983898e-05
6.2984816e-05
6.2986337e-05
6.2987919e-05
6.2988903e-05
6.2988631e-05
6.2986562e-05
6.2982332e-05
6.2975665e-05
6.2965966e-05
6.2951262e-05
6.2927478e-05
6.2944565e-05
6.2962678e-05
6.2972992e-05
6.297971e-05
6.2984126e-05
6.2986653e-05
6.2987478e-05
6.2986872e-05
6.2985288e-05
6.2983313e-05
6.2981553e-05
6.2980523e-05
6.2980523e-05
6.2981554e-05
6.298331e-05
6.2985276e-05
6.2986839e-05
6.2987408e-05
6.2986522e-05
6.2983895e-05
6.2979325e-05
6.2972378e-05
6.2961775e-05
6.2943852e-05
7.2162985e-05
7.2174228e-05
7.2178906e-05
7.2179659e-05
7.2178868e-05
7.2178477e-05
7.2179643e-05
7.2182636e-05
7.2186934e-05
7.2191503e-05
7.2195214e-05
7.2197255e-05
7.2197263e-05
7.2195238e-05
7.2191543e-05
7.2186991e-05
7.2182711e-05
7.2179739e-05
7.2178594e-05
7.2178999e-05
7.2179756e-05
7.2178747e-05
7.2173027e-05
7.2159381e-05
7.2166299e-05
7.2179443e-05
7.2182906e-05
7.218203e-05
7.217996e-05
7.2178686e-05
7.2179255e-05
7.2181831e-05
7.218582e-05
7.2190145e-05
7.2193672e-05
7.2195603e-05
7.2195595e-05
7.2193648e-05
7.2190104e-05
7.218576e-05
7.218175e-05
7.2179148e-05
7.2178541e-05
7.2179756e-05
7.2181731e-05
7.2182468e-05
7.2178903e-05
7.2166276e-05
4.936055e-05
4.936893e-05
4.937261e-05
4.9373429e-05
4.9373014e-05
4.9372717e-05
4.9373357e-05
4.9375109e-05
4.9377589e-05
4.9380115e-05
4.9382058e-05
4.9383078e-05
4.9383084e-05
4.9382076e-05
4.9380145e-05
4.9377633e-05
4.9375166e-05
4.9373427e-05
4.9372797e-05
4.9373091e-05
4.9373447e-05
4.9372385e-05
4.9368001e-05
4.9358545e-05
4.9361818e-05
4.9371493e-05
4.937466e-05
4.9374662e-05
4.937362e-05
4.9372912e-05
4.9373276e-05
4.9374818e-05
4.9377114e-05
4.9379472e-05
4.9381278e-05
4.9382215e-05
4.9382208e-05
4.9381259e-05
4.9379439e-05
4.9377067e-05
4.9374756e-05
4.9373197e-05
4.9372812e-05
4.9373492e-05
4.9374491e-05
4.9374439e-05
4.9371303e-05
4.9362122e-05
3.0455457e-05
3.0460999e-05
3.0463378e-05
3.0463983e-05
3.0463868e-05
3.0463762e-05
3.0464072e-05
3.0464885e-05
3.046603e-05
3.0467207e-05
3.0468134e-05
3.0468636e-05
3.046864e-05
3.0468146e-05
3.0467226e-05
3.0466057e-05
3.046492e-05
3.0464114e-05
3.0463807e-05
3.0463903e-05
3.0463961e-05
3.0463174e-05
3.0460376e-05
3.0454386e-05
3.045572e-05
3.0461951e-05
3.0464197e-05
3.0464496e-05
3.0464138e-05
3.0463872e-05
3.046407e-05
3.0464789e-05
3.0465849e-05
3.0466949e-05
3.0467816e-05
3.0468281e-05
3.0468277e-05
3.0467803e-05
3.0466928e-05
3.046582e-05
3.0464751e-05
3.0464022e-05
3.0463815e-05
3.046407e-05
3.0464415e-05
3.0464116e-05
3.0461946e-05
3.0456062e-05
1.7795238e-05
1.7798782e-05
1.7800242e-05
1.7800595e-05
1.7800543e-05
1.7800488e-05
1.7800624e-05
1.7800991e-05
1.7801522e-05
1.7802092e-05
1.7802564e-05
1.7802831e-05
1.7802834e-05
1.7802571e-05
1.7802103e-05
1.7801537e-05
1.780101e-05
1.7800646e-05
1.780051e-05
1.7800556e-05
1.7800568e-05
1.7800097e-05
1.7798403e-05
1.7794663e-05
1.7795199e-05
1.7799073e-05
1.780052e-05
1.7800776e-05
1.7800643e-05
1.7800534e-05
1.7800628e-05
1.7800959e-05
1.7801457e-05
1.7801997e-05
1.7802447e-05
1.78027e-05
1.7802697e-05
1.780244e-05
1.7801985e-05
1.780144e-05
1.7800938e-05
1.7800603e-05
1.7800504e-05
1.7800609e-05
1.7800741e-05
1.7800498e-05
1.7799119e-05
1.7795454e-05
9.7597612e-06
9.7619994e-06
9.7629396e-06
9.7631991e-06
9.7632113e-06
9.7631994e-06
9.7632571e-06
9.7634048e-06
9.7636188e-06
9.7638514e-06
9.7640475e-06
9.7641596e-06
9.7641607e-06
9.7640507e-06
9.7638567e-06
9.7636262e-06
9.763414e-06
9.7632678e-06
9.7632098e-06
9.7632154e-06
9.7631784e-06
9.7628521e-06
9.7617903e-06
9.7594643e-06
9.7596862e-06
9.76208e-06
9.7630299e-06
9.7632586e-06
9.7632439e-06
9.7632129e-06
9.7632551e-06
9.7633881e-06
9.7635884e-06
9.7638089e-06
9.7639956e-06
9.7641018e-06
9.7641006e-06
9.7639921e-06
9.7638032e-06
9.7635805e-06
9.763378e-06
9.7632429e-06
9.7631989e-06
9.7632287e-06
9.7632444e-06
9.7630268e-06
9.7621205e-06
9.7598407e-06
4.9228581e-06
4.9241915e-06
4.9247649e-06
4.9249468e-06
4.9249844e-06
4.9249933e-06
4.9250174e-06
4.9250668e-06
4.9251355e-06
4.9252091e-06
4.9252708e-06
4.925306e-06
4.9253065e-06
4.9252721e-06
4.9252113e-06
4.9251386e-06
4.9250708e-06
4.925022e-06
4.9249977e-06
4.9249854e-06
4.924935e-06
4.9247197e-06
4.9240882e-06
4.9227165e-06
4.922808e-06
4.9242124e-06
4.924795e-06
4.9249665e-06
4.9249939e-06
4.9249951e-06
4.9250126e-06
4.9250558e-06
4.9251185e-06
4.9251869e-06
4.9252447e-06
4.9252774e-06
4.9252769e-06
4.9252432e-06
4.9251845e-06
4.9251151e-06
4.9250514e-06
4.9250074e-06
4.9249891e-06
4.9249874e-06
4.9249609e-06
4.9247958e-06
4.9242366e-06
4.9228882e-06
2.23804e-06
2.2387579e-06
2.2390647e-06
2.2391676e-06
2.2391962e-06
2.2392057e-06
2.239215e-06
2.2392289e-06
2.2392464e-06
2.2392644e-06
2.2392792e-06
2.2392876e-06
2.2392878e-06
2.2392797e-06
2.2392653e-06
2.2392476e-06
2.2392304e-06
2.2392168e-06
2.2392073e-06
2.2391964e-06
2.2391622e-06
2.2390447e-06
2.2387131e-06
2.2379797e-06
2.2380152e-06
2.2387626e-06
2.2390744e-06
2.2391738e-06
2.2391985e-06
2.2392048e-06
2.2392114e-06
2.2392227e-06
2.2392378e-06
2.2392538e-06
2.239267e-06
2.2392745e-06
2.2392743e-06
2.2392665e-06
2.2392528e-06
2.2392365e-06
2.239221e-06
2.2392094e-06
2.2392025e-06
2.2391959e-06
2.2391717e-06
2.2390753e-06
2.2387741e-06
2.238051e-06
9.1210168e-07
9.1244433e-07
9.1258626e-07
9.1263369e-07
9.1264795e-07
9.1265297e-07
9.1265625e-07
9.1265963e-07
9.1266322e-07
9.126666e-07
9.1266926e-07
9.1267075e-07
9.1267081e-07
9.1266944e-07
9.1266691e-07
9.1266365e-07
9.1266018e-07
9.1265689e-07
9.1265357e-07
9.12648e-07
9.1263165e-07
9.1257874e-07
9.1242753e-07
9.120792e-07
9.1209165e-07
9.1244512e-07
9.1258915e-07
9.1263545e-07
9.1264831e-07
9.1265217e-07
9.1265443e-07
9.1265685e-07
9.1265957e-07
9.1266222e-07
9.1266433e-07
9.1266546e-07
9.126654e-07
9.1266413e-07
9.126619e-07
9.1265912e-07
9.1265627e-07
9.1265371e-07
9.1265134e-07
9.1264741e-07
9.1263473e-07
9.1258959e-07
9.1244966e-07
9.1210546e-07
3.3793044e-07
3.3807549e-07
3.3813292e-07
3.3815145e-07
3.3815702e-07
3.3815899e-07
3.3816003e-07
3.3816078e-07
3.3816136e-07
3.3816179e-07
3.3816208e-07
3.3816223e-07
3.3816225e-07
3.3816214e-07
3.3816189e-07
3.381615e-07
3.3816096e-07
3.3816024e-07
3.3815919e-07
3.3815705e-07
3.381508e-07
3.3813049e-07
3.3807001e-07
3.3792312e-07
3.37927e-07
3.3807553e-07
3.3813368e-07
3.3815187e-07
3.38157e-07
3.3815859e-07
3.3815929e-07
3.3815972e-07
3.3816002e-07
3.3816021e-07
3.3816032e-07
3.3816036e-07
3.3816034e-07
3.3816026e-07
3.3816011e-07
3.3815987e-07
3.3815953e-07
3.3815906e-07
3.3815832e-07
3.3815671e-07
3.3815163e-07
3.3813383e-07
3.3807705e-07
3.3793161e-07
1.1579887e-07
1.1585376e-07
1.1587438e-07
1.1588069e-07
1.1588253e-07
1.1588317e-07
1.1588348e-07
1.1588364e-07
1.1588371e-07
1.1588372e-07
1.158837e-07
1.1588368e-07
1.1588369e-07
1.1588372e-07
1.1588375e-07
1.1588375e-07
1.158837e-07
1.1588355e-07
1.1588324e-07
1.1588255e-07
1.1588053e-07
1.158737e-07
1.1585221e-07
1.1579679e-07
1.1579786e-07
1.1585372e-07
1.1587455e-07
1.1588078e-07
1.1588249e-07
1.1588302e-07
1.1588322e-07
1.1588329e-07
1.1588327e-07
1.158832e-07
1.1588313e-07
1.1588308e-07
1.1588307e-07
1.1588311e-07
1.1588317e-07
1.1588322e-07
1.1588323e-07
1.1588315e-07
1.1588294e-07
1.158824e-07
1.158807e-07
1.1587459e-07
1.1585416e-07
1.1579921e-07
3.7359432e-08
3.7378203e-08
3.7384855e-08
3.7386773e-08
3.7387308e-08
3.7387493e-08
3.7387578e-08
3.7387615e-08
3.7387618e-08
3.7387603e-08
3.7387582e-08
3.7387569e-08
3.7387571e-08
3.7387588e-08
3.7387612e-08
3.7387632e-08
3.7387631e-08
3.7387598e-08
3.7387514e-08
3.7387319e-08
3.7386739e-08
3.7384695e-08
3.737782e-08
3.7358916e-08
3.7359174e-08
3.7378188e-08
3.7384893e-08
3.7386787e-08
3.7387289e-08
3.7387442e-08
3.7387497e-08
3.7387505e-08
3.7387484e-08
3.7387448e-08
3.7387411e-08
3.7387388e-08
3.7387386e-08
3.7387406e-08
3.7387438e-08
3.7387471e-08
3.7387488e-08
3.7387475e-08
3.7387417e-08
3.7387261e-08
3.7386762e-08
3.7384895e-08
3.7378294e-08
3.7359518e-08
1.1602357e-08
1.1608235e-08
1.1610186e-08
1.1610713e-08
1.1610854e-08
1.1610903e-08
1.1610927e-08
1.1610936e-08
1.1610936e-08
1.161093e-08
1.1610923e-08
1.1610919e-08
1.1610919e-08
1.1610925e-08
1.1610933e-08
1.161094e-08
1.1610941e-08
1.1610933e-08
1.161091e-08
1.1610859e-08
1.1610709e-08
1.1610154e-08
1.1608154e-08
1.1602246e-08
1.16023e-08
1.1608232e-08
1.1610194e-08
1.1610715e-08
1.1610847e-08
1.1610888e-08
1.1610903e-08
1.1610904e-08
1.1610897e-08
1.1610885e-08
1.1610874e-08
1.1610866e-08
1.1610866e-08
1.1610872e-08
1.1610883e-08
1.1610893e-08
1.1610899e-08
1.1610896e-08
1.1610881e-08
1.1610839e-08
1.1610707e-08
1.1610192e-08
1.1608254e-08
1.1602378e-08
3.59668e-09
3.5983948e-09
3.5989217e-09
3.5990546e-09
3.5990891e-09
3.5991018e-09
3.5991082e-09
3.5991112e-09
3.5991115e-09
3.5991101e-09
3.5991083e-09
3.5991071e-09
3.5991073e-09
3.5991088e-09
3.599111e-09
3.5991127e-09
3.5991128e-09
3.5991102e-09
3.5991039e-09
3.599091e-09
3.5990549e-09
3.5989167e-09
3.5983802e-09
3.5966599e-09
3.5966697e-09
3.5983947e-09
3.5989234e-09
3.5990548e-09
3.599087e-09
3.5990973e-09
3.5991014e-09
3.5991021e-09
3.5991003e-09
3.599097e-09
3.5990933e-09
3.5990912e-09
3.599091e-09
3.5990927e-09
3.5990961e-09
3.599099e-09
3.5991005e-09
3.5990995e-09
3.599095e-09
3.5990844e-09
3.5990521e-09
3.5989219e-09
3.5983981e-09
3.5966849e-09
1.1810597e-09
1.1815383e-09
1.1816717e-09
1.1817031e-09
1.1817113e-09
1.1817147e-09
1.1817167e-09
1.1817178e-09
1.181718e-09
1.1817177e-09
1.181717e-09
1.1817167e-09
1.1817168e-09
1.1817172e-09
1.181718e-09
1.1817185e-09
1.1817183e-09
1.1817174e-09
1.1817155e-09
1.1817121e-09
1.1817036e-09
1.1816714e-09
1.1815363e-09
1.1810569e-09
1.1810583e-09
1.1815386e-09
1.1816722e-09
1.1817031e-09
1.1817107e-09
1.1817134e-09
1.1817147e-09
1.181715e-09
1.1817145e-09
1.1817129e-09
1.1817096e-09
1.1817088e-09
1.1817087e-09
1.1817094e-09
1.1817126e-09
1.181714e-09
1.1817144e-09
1.181714e-09
1.1817126e-09
1.1817098e-09
1.1817022e-09
1.1816715e-09
1.1815388e-09
1.1810608e-09
4.4064346e-10
4.4077727e-10
4.4080992e-10
4.408171e-10
4.4081915e-10
4.4082022e-10
4.4082093e-10
4.4082136e-10
4.4082147e-10
4.4082106e-10
4.4081961e-10
4.4081941e-10
4.4081943e-10
4.4081968e-10
4.4082118e-10
4.4082164e-10
4.4082157e-10
4.4082119e-10
4.4082052e-10
4.4081948e-10
4.4081741e-10
4.4081012e-10
4.4077723e-10
4.4064335e-10
4.4064349e-10
4.4077751e-10
4.4081013e-10
4.4081713e-10
4.4081897e-10
4.4081978e-10
4.4082023e-10
4.4082033e-10
4.408197e-10
4.4081675e-10
4.4080702e-10
4.408061e-10
4.4080608e-10
4.4080694e-10
4.4081663e-10
4.4081953e-10
4.4082011e-10
4.4081996e-10
4.4081947e-10
4.4081861e-10
4.4081675e-10
4.4080976e-10
4.407773e-10
4.4064371e-10
1.9320824e-10
1.9324858e-10
1.9325677e-10
1.9325848e-10
1.9325909e-10
1.932595e-10
1.932598e-10
1.9325997e-10
1.9325978e-10
1.9325835e-10
1.9325327e-10
1.9325287e-10
1.9325288e-10
1.932533e-10
1.9325841e-10
1.9325986e-10
1.9326007e-10
1.9325992e-10
1.9325964e-10
1.9325925e-10
1.9325864e-10
1.9325692e-10
1.9324871e-10
1.9320838e-10
1.9320837e-10
1.9324872e-10
1.9325686e-10
1.932585e-10
1.9325902e-10
1.9325932e-10
1.932595e-10
1.9325936e-10
1.9325755e-10
1.9324902e-10
1.9321549e-10
1.9321421e-10
1.932142e-10
1.9321545e-10
1.9324897e-10
1.9325747e-10
1.9325926e-10
1.9325937e-10
1.9325918e-10
1.9325886e-10
1.9325832e-10
1.9325668e-10
1.9324856e-10
1.9320829e-10
9.6445854e-11
9.6460037e-11
9.646235e-11
9.6462828e-11
9.6463062e-11
9.6463247e-11
9.6463388e-11
9.6463381e-11
9.6462502e-11
9.6458078e-11
9.6440875e-11
9.6440276e-11
9.6440282e-11
9.6440888e-11
9.6458107e-11
9.6462543e-11
9.646343e-11
9.646345e-11
9.646332e-11
9.6463143e-11
9.6462915e-11
9.6462441e-11
9.6460129e-11
9.6445952e-11
9.6445941e-11
9.6460111e-11
9.64624e-11
9.6462841e-11
9.646303e-11
9.6463163e-11
9.6463205e-11
9.6462635e-11
9.6457476e-11
9.6434105e-11
9.6389071e-11
9.6390255e-11
9.639025e-11
9.6389051e-11
9.6434073e-11
9.6457436e-11
9.6462581e-11
9.6463141e-11
9.6463089e-11
9.6462945e-11
9.6462749e-11
9.6462304e-11
9.6460018e-11
9.6445863e-11
5.1694708e-11
5.1700624e-11
5.1701416e-11
5.1701587e-11
5.1701696e-11
5.1701788e-11
5.1701841e-11
5.1701589e-11
5.169891e-11
5.1686729e-11
5.1665667e-11
5.1666335e-11
5.1666338e-11
5.1665672e-11
5.1686745e-11
5.1698933e-11
5.1701616e-11
5.1701875e-11
5.1701828e-11
5.1701739e-11
5.1701635e-11
5.1701468e-11
5.1700677e-11
5.1694763e-11
5.1694758e-11
5.1700665e-11
5.1701443e-11
5.1701594e-11
5.1701679e-11
5.1701739e-11
5.1701669e-11
5.1700231e-11
5.1686509e-11
5.166383e-11
5.167422e-11
5.1675335e-11
5.1675332e-11
5.167421e-11
5.1663811e-11
5.1686487e-11
5.1700202e-11
5.1701634e-11
5.1701699e-11
5.1701633e-11
5.1701545e-11
5.1701391e-11
5.1700612e-11
5.1694709e-11
2.8528964e-11
2.8531734e-11
2.8532056e-11
2.853213e-11
2.8532185e-11
2.853223e-11
2.8532215e-11
2.85315e-11
2.8524207e-11
2.8512669e-11
2.8518556e-11
2.8519165e-11
2.8519167e-11
2.8518561e-11
2.8512678e-11
2.8524221e-11
2.8531516e-11
2.8532235e-11
2.8532253e-11
2.8532209e-11
2.8532157e-11
2.8532084e-11
2.8531763e-11
2.8528995e-11
2.8528992e-11
2.8531755e-11
2.853207e-11
2.8532134e-11
2.8532175e-11
2.8532195e-11
2.8531987e-11
2.8529063e-11
2.8512684e-11
2.8518201e-11
2.8523121e-11
2.8523758e-11
2.8523757e-11
2.8523116e-11
2.8518192e-11
2.8512671e-11
2.8529047e-11
2.8531967e-11
2.8532173e-11
2.853215e-11
2.8532107e-11
2.8532041e-11
2.8531726e-11
2.8528964e-11
1.5895002e-11
1.5896368e-11
1.5896512e-11
1.5896547e-11
1.5896576e-11
1.5896595e-11
1.5896503e-11
1.5894994e-11
1.5886278e-11
1.5889439e-11
1.5892155e-11
1.589249e-11
1.5892491e-11
1.5892158e-11
1.5889444e-11
1.5886285e-11
1.5895003e-11
1.5896513e-11
1.5896608e-11
1.5896589e-11
1.5896562e-11
1.5896528e-11
1.5896384e-11
1.5895019e-11
1.5895017e-11
1.589638e-11
1.5896519e-11
1.5896549e-11
1.5896569e-11
1.589656e-11
1.5896159e-11
1.5891914e-11
1.588918e-11
1.5892104e-11
1.5893965e-11
1.5894235e-11
1.5894234e-11
1.5893962e-11
1.5892099e-11
1.5889173e-11
1.5891905e-11
1.5896148e-11
1.5896548e-11
1.5896556e-11
1.5896534e-11
1.5896504e-11
1.5896364e-11
1.5895001e-11
8.879504e-12
8.8801909e-12
8.880258e-12
8.8802755e-12
8.8802902e-12
8.8802906e-12
8.880093e-12
8.877839e-12
8.8764684e-12
8.8780811e-12
8.8790716e-12
8.8792072e-12
8.8792078e-12
8.8790733e-12
8.8780842e-12
8.8764727e-12
8.877844e-12
8.880099e-12
8.8802974e-12
8.8802974e-12
8.8802837e-12
8.8802664e-12
8.8802e-12
8.8795134e-12
8.8795123e-12
8.8801973e-12
8.8802618e-12
8.8802764e-12
8.8802848e-12
8.8802411e-12
8.8794432e-12
8.874728e-12
8.8778882e-12
8.8790584e-12
8.8796543e-12
8.8797436e-12
8.8797431e-12
8.8796527e-12
8.8790556e-12
8.8778849e-12
8.8747232e-12
8.8794374e-12
8.8802343e-12
8.8802773e-12
8.8802683e-12
8.8802531e-12
8.8801886e-12
8.8795036e-12
4.9654261e-12
4.9657736e-12
4.9658053e-12
4.9658141e-12
4.965821e-12
4.9658022e-12
4.9653902e-12
4.962862e-12
4.9646243e-12
4.9652442e-12
4.9655475e-12
4.9655906e-12
4.965591e-12
4.9655485e-12
4.965246e-12
4.9646266e-12
4.9628648e-12
4.9653936e-12
4.9658059e-12
4.965825e-12
4.9658187e-12
4.96581e-12
4.9657787e-12
4.9654313e-12
4.9654307e-12
4.9657771e-12
4.9658074e-12
4.9658145e-12
4.9658156e-12
4.9657296e-12
4.9645126e-12
4.9638298e-12
4.9651456e-12
4.9655369e-12
4.965697e-12
4.9657207e-12
4.9657205e-12
4.9656961e-12
4.9655353e-12
4.9651437e-12
4.9638272e-12
4.9645093e-12
4.9657259e-12
4.9658115e-12
4.9658101e-12
4.9658025e-12
4.9657724e-12
4.9654259e-12
2.7798675e-12
2.7800437e-12
2.7800587e-12
2.7800632e-12
2.7800653e-12
2.7800234e-12
2.779377e-12
2.7790366e-12
2.7797465e-12
2.7799447e-12
2.7800224e-12
2.7800336e-12
2.7800338e-12
2.7800231e-12
2.7799457e-12
2.7797477e-12
2.7790381e-12
2.7793789e-12
2.7800254e-12
2.7800676e-12
2.7800657e-12
2.7800614e-12
2.7800465e-12
2.7798704e-12
2.77987e-12
2.7800456e-12
2.7800599e-12
2.7800633e-12
2.7800592e-12
2.7799033e-12
2.7784848e-12
2.7794656e-12
2.7799056e-12
2.780015e-12
2.780051e-12
2.780056e-12
2.780056e-12
2.7800504e-12
2.7800142e-12
2.7799045e-12
2.7794641e-12
2.7784829e-12
2.7799012e-12
2.7800568e-12
2.7800608e-12
2.7800572e-12
2.7800429e-12
2.7798672e-12
1.5585229e-12
1.5586123e-12
1.5586195e-12
1.5586217e-12
1.5586206e-12
1.5585412e-12
1.5577814e-12
1.5583245e-12
1.5585529e-12
1.5586058e-12
1.5586226e-12
1.5586251e-12
1.5586252e-12
1.5586229e-12
1.5586064e-12
1.5585535e-12
1.5583254e-12
1.5577825e-12
1.5585424e-12
1.5586218e-12
1.5586232e-12
1.558621e-12
1.5586139e-12
1.5585245e-12
1.5585243e-12
1.5586135e-12
1.5586202e-12
1.5586218e-12
1.5586156e-12
1.5584849e-12
1.5580903e-12
1.5584683e-12
1.5585926e-12
1.5586184e-12
1.5586251e-12
1.558626e-12
1.5586259e-12
1.5586248e-12
1.5586179e-12
1.558592e-12
1.5584675e-12
1.5580893e-12
1.5584837e-12
1.5586142e-12
1.5586203e-12
1.5586187e-12
1.5586119e-12
1.5585227e-12
8.7561742e-13
8.7566288e-13
8.7566635e-13
8.756674e-13
8.7566486e-13
8.7559767e-13
8.753928e-13
8.7559515e-13
8.7565695e-13
8.7566891e-13
8.7567207e-13
8.7567265e-13
8.7567272e-13
8.7567227e-13
8.7566923e-13
8.756573e-13
8.7559565e-13
8.7539341e-13
8.7559831e-13
8.7566555e-13
8.7566819e-13
8.7566715e-13
8.7566376e-13
8.7561831e-13
8.7561825e-13
8.7566354e-13
8.7566674e-13
8.7566724e-13
8.7565642e-13
8.7547219e-13
8.7550699e-13
8.7563457e-13
8.7566465e-13
8.7566984e-13
8.7567094e-13
8.7567105e-13
8.7567102e-13
8.7567075e-13
8.7566956e-13
8.7566432e-13
8.756341e-13
8.755064e-13
8.7547151e-13
8.7565558e-13
8.7566639e-13
8.7566588e-13
8.7566264e-13
8.7561729e-13
4.9439963e-13
4.9442281e-13
4.9442448e-13
4.9442486e-13
4.9441963e-13
4.9432148e-13
4.9434485e-13
4.9441082e-13
4.944252e-13
4.9442759e-13
4.9442818e-13
4.9442836e-13
4.9442839e-13
4.9442829e-13
4.9442775e-13
4.9442539e-13
4.9441109e-13
4.9434518e-13
4.9432186e-13
4.9442002e-13
4.944253e-13
4.944249e-13
4.9442329e-13
4.9440014e-13
4.944001e-13
4.9442317e-13
4.944247e-13
4.9442449e-13
4.9440455e-13
4.9418628e-13
4.9438262e-13
4.9441967e-13
4.9442604e-13
4.94427e-13
4.9442718e-13
4.9442719e-13
4.9442716e-13
4.9442707e-13
4.9442685e-13
4.9442587e-13
4.9441942e-13
4.9438228e-13
4.9418589e-13
4.9440407e-13
4.9442399e-13
4.944242e-13
4.9442266e-13
4.9439956e-13
2.8152059e-13
2.8153248e-13
2.8153329e-13
2.8153325e-13
2.8152305e-13
2.8140606e-13
2.815132e-13
2.8153174e-13
2.8153474e-13
2.8153523e-13
2.8153537e-13
2.8153545e-13
2.8153547e-13
2.8153543e-13
2.815353e-13
2.8153485e-13
2.815319e-13
2.8151337e-13
2.8140627e-13
2.8152327e-13
2.815335e-13
2.8153351e-13
2.8153274e-13
2.8152087e-13
2.8152085e-13
2.8153267e-13
2.8153341e-13
2.8153311e-13
2.8151995e-13
2.8145984e-13
2.8152393e-13
2.8153331e-13
2.8153454e-13
2.8153473e-13
2.8153478e-13
2.8153479e-13
2.8153476e-13
2.8153472e-13
2.8153466e-13
2.8153445e-13
2.8153318e-13
2.8152372e-13
2.8145961e-13
2.8151967e-13
2.8153283e-13
2.8153311e-13
2.8153239e-13
2.8152056e-13
1.6217995e-13
1.6218609e-13
1.6218649e-13
1.6218638e-13
1.6217963e-13
1.6214832e-13
1.6218227e-13
1.6218683e-13
1.6218745e-13
1.6218758e-13
1.6218764e-13
1.6218769e-13
1.6218769e-13
1.6218767e-13
1.6218762e-13
1.6218751e-13
1.6218693e-13
1.6218237e-13
1.6214843e-13
1.6217975e-13
1.6218652e-13
1.6218661e-13
1.6218623e-13
1.6218011e-13
1.6218009e-13
1.621862e-13
1.6218655e-13
1.621862e-13
1.6217665e-13
1.6216645e-13
1.6218487e-13
1.6218699e-13
1.6218724e-13
1.6218729e-13
1.6218731e-13
1.6218732e-13
1.6218731e-13
1.6218728e-13
1.6218725e-13
1.6218719e-13
1.6218692e-13
1.6218475e-13
1.6216632e-13
1.621765e-13
1.6218605e-13
1.6218638e-13
1.6218605e-13
1.6217993e-13
9.485529e-14
9.4858489e-14
9.4858692e-14
9.4858529e-14
9.485349e-14
9.4848581e-14
9.4858078e-14
9.4859095e-14
9.485925e-14
9.4859306e-14
9.4859337e-14
9.4859362e-14
9.4859364e-14
9.4859352e-14
9.4859323e-14
9.4859284e-14
9.4859157e-14
9.4858137e-14
9.484864e-14
9.4853558e-14
9.4858619e-14
9.4858765e-14
9.4858574e-14
9.4855382e-14
9.4855374e-14
9.4858557e-14
9.4858716e-14
9.4857984e-14
9.484241e-14
9.4852891e-14
9.4858578e-14
9.4859058e-14
9.4859119e-14
9.4859144e-14
9.4859155e-14
9.4859164e-14
9.4859154e-14
9.4859137e-14
9.4859123e-14
9.4859083e-14
9.4859008e-14
9.4858509e-14
9.4852819e-14
9.4842336e-14
9.48579e-14
9.4858615e-14
9.4858471e-14
9.4855284e-14
5.6552772e-14
5.6554457e-14
5.6554555e-14
5.6554174e-14
5.6545532e-14
5.6551668e-14
5.6554589e-14
5.6554823e-14
5.6554878e-14
5.6554908e-14
5.6554928e-14
5.6554941e-14
5.6554939e-14
5.6554935e-14
5.6554918e-14
5.6554896e-14
5.6554857e-14
5.6554621e-14
5.65517e-14
5.6545571e-14
5.6554228e-14
5.6554602e-14
5.655451e-14
5.6552826e-14
5.6552823e-14
5.6554502e-14
5.6554552e-14
5.6553062e-14
5.6534311e-14
5.6553036e-14
5.6554663e-14
5.6554783e-14
5.6554805e-14
5.6554819e-14
5.6554826e-14
5.6554832e-14
5.6554826e-14
5.6554815e-14
5.6554809e-14
5.6554781e-14
5.6554751e-14
5.6554624e-14
5.6552996e-14
5.653427e-14
5.6553016e-14
5.6554494e-14
5.655445e-14
5.6552771e-14
3.4523593e-14
3.4524492e-14
3.4524531e-14
3.452373e-14
3.4513347e-14
3.4523805e-14
3.4524641e-14
3.4524703e-14
3.4524728e-14
3.4524745e-14
3.4524757e-14
3.4524764e-14
3.4524762e-14
3.4524761e-14
3.4524751e-14
3.452474e-14
3.4524721e-14
3.4524656e-14
3.4523824e-14
3.4513372e-14
3.4523763e-14
3.4524559e-14
3.4524526e-14
3.4523624e-14
3.4523624e-14
3.4524522e-14
3.4524538e-14
3.4523601e-14
3.4518926e-14
3.452423e-14
3.4524643e-14
3.4524676e-14
3.4524688e-14
3.4524695e-14
3.4524699e-14
3.4524703e-14
3.45247e-14
3.4524692e-14
3.4524689e-14
3.4524673e-14
3.4524658e-14
3.4524618e-14
3.4524208e-14
3.4518901e-14
3.4523576e-14
3.4524506e-14
3.4524491e-14
3.4523594e-14
2.1681571e-14
2.1682059e-14
2.1682079e-14
2.1681572e-14
2.1679058e-14
2.1681947e-14
2.1682159e-14
2.168218e-14
2.1682195e-14
2.1682205e-14
2.168221e-14
2.1682214e-14
2.1682213e-14
2.1682213e-14
2.1682208e-14
2.1682201e-14
2.168219e-14
2.1682167e-14
2.1681959e-14
2.1679075e-14
2.168159e-14
2.1682094e-14
2.168208e-14
2.168159e-14
2.1681588e-14
2.1682078e-14
2.1682085e-14
2.1681583e-14
2.1680705e-14
2.1682055e-14
2.1682152e-14
2.1682163e-14
2.1682171e-14
2.1682174e-14