/*--------------------------------*- C++ -*----------------------------------*\
| =========                 |                                                 |
| \\      /  F ield         | OpenFOAM: The Open Source CFD Toolbox           |
|  \\    /   O peration     | Version:  v1912                                 |
|   \\  /    A nd           | Website:  www.openfoam.com                      |
|    \\/     M anipulation  |                                                 |
\*---------------------------------------------------------------------------*/
FoamFile
{
    version     2.0;
    format      ascii;
    class       volScalarField;
    location    "2";
    object      nut;
}
// * * * * * * * * * * * * * * * * * * * * * * * * * * * * * * * * * * * * * //

dimensions      [0 2 -1 0 0 0 0];


internalField   nonuniform List<scalar> 
255504
(
1.8673844e-06
1.8671723e-06
1.8672599e-06
1.8675929e-06
1.8678497e-06
1.8680408e-06
1.8681752e-06
1.8682617e-06
1.8683109e-06
1.8683339e-06
1.8683418e-06
1.8683434e-06
1.8683435e-06
1.8683422e-06
1.8683347e-06
1.8683123e-06
1.8682639e-06
1.8681783e-06
1.8680452e-06
1.8678556e-06
1.8676005e-06
1.8672693e-06
1.867185e-06
1.8673969e-06
1.8675895e-06
1.8677663e-06
1.8679264e-06
1.8680662e-06
1.8681808e-06
1.8682664e-06
1.8683217e-06
1.8683492e-06
1.8683549e-06
1.8683473e-06
1.8683357e-06
1.8683276e-06
1.8683275e-06
1.8683352e-06
1.8683463e-06
1.8683532e-06
1.8683467e-06
1.8683182e-06
1.8682616e-06
1.8681746e-06
1.8680583e-06
1.8679168e-06
1.8677548e-06
1.8675759e-06
1.9255319e-06
1.9252861e-06
1.9254736e-06
1.9258436e-06
1.9261153e-06
1.9263137e-06
1.9264504e-06
1.9265351e-06
1.9265792e-06
1.9265959e-06
1.9265981e-06
1.9265963e-06
1.9265965e-06
1.9265985e-06
1.9265967e-06
1.9265805e-06
1.9265371e-06
1.9264534e-06
1.9263181e-06
1.9261213e-06
1.9258515e-06
1.9254837e-06
1.9252984e-06
1.9255452e-06
1.925775e-06
1.9259799e-06
1.9261614e-06
1.9263176e-06
1.926444e-06
1.9265364e-06
1.9265934e-06
1.9266182e-06
1.9266182e-06
1.9266038e-06
1.9265861e-06
1.9265746e-06
1.9265744e-06
1.9265856e-06
1.9266028e-06
1.9266166e-06
1.9266158e-06
1.92659e-06
1.9265316e-06
1.9264377e-06
1.9263096e-06
1.9261516e-06
1.9259684e-06
1.9257618e-06
1.9115581e-06
1.9114278e-06
1.9117802e-06
1.9121014e-06
1.9123626e-06
1.9125586e-06
1.9126914e-06
1.9127682e-06
1.9128011e-06
1.9128057e-06
1.9127976e-06
1.91279e-06
1.9127901e-06
1.912798e-06
1.9128063e-06
1.9128023e-06
1.91277e-06
1.9126942e-06
1.9125627e-06
1.9123683e-06
1.9121092e-06
1.9117904e-06
1.9114392e-06
1.9115711e-06
1.911894e-06
1.9121429e-06
1.9123522e-06
1.9125284e-06
1.9126682e-06
1.9127671e-06
1.9128238e-06
1.9128422e-06
1.9128319e-06
1.9128059e-06
1.9127785e-06
1.9127613e-06
1.9127612e-06
1.912778e-06
1.9128051e-06
1.9128305e-06
1.9128401e-06
1.9128206e-06
1.9127626e-06
1.9126621e-06
1.9125205e-06
1.9123425e-06
1.9121316e-06
1.9118816e-06
1.8257377e-06
1.825713e-06
1.8260545e-06
1.8263568e-06
1.8266056e-06
1.8267918e-06
1.8269145e-06
1.8269798e-06
1.8270006e-06
1.8269939e-06
1.8269772e-06
1.8269648e-06
1.8269649e-06
1.8269774e-06
1.8269945e-06
1.8270016e-06
1.8269813e-06
1.8269169e-06
1.8267955e-06
1.8266107e-06
1.8263639e-06
1.8260637e-06
1.8257241e-06
1.8257497e-06
1.8260732e-06
1.8263357e-06
1.826557e-06
1.826741e-06
1.8268842e-06
1.8269822e-06
1.8270341e-06
1.8270451e-06
1.8270257e-06
1.826991e-06
1.8269565e-06
1.8269355e-06
1.8269354e-06
1.8269562e-06
1.8269903e-06
1.8270247e-06
1.8270433e-06
1.8270314e-06
1.8269782e-06
1.8268787e-06
1.8267337e-06
1.8265477e-06
1.8263247e-06
1.8260614e-06
1.6901165e-06
1.6901331e-06
1.6905042e-06
1.6908234e-06
1.6910816e-06
1.6912692e-06
1.6913841e-06
1.6914334e-06
1.691433e-06
1.6914041e-06
1.6913691e-06
1.6913463e-06
1.6913464e-06
1.6913692e-06
1.6914044e-06
1.6914337e-06
1.6914346e-06
1.691386e-06
1.6912722e-06
1.6910861e-06
1.6908298e-06
1.690513e-06
1.6901443e-06
1.6901289e-06
1.6904557e-06
1.6907355e-06
1.6909786e-06
1.6911825e-06
1.6913397e-06
1.691443e-06
1.6914908e-06
1.691489e-06
1.6914512e-06
1.6913965e-06
1.6913454e-06
1.6913149e-06
1.6913149e-06
1.6913452e-06
1.6913961e-06
1.6914504e-06
1.6914876e-06
1.6914886e-06
1.6914396e-06
1.6913347e-06
1.6911756e-06
1.6909695e-06
1.6907245e-06
1.6904437e-06
1.5417065e-06
1.5417505e-06
1.5421624e-06
1.542512e-06
1.5427889e-06
1.5429826e-06
1.5430906e-06
1.5431218e-06
1.5430959e-06
1.5430397e-06
1.5429818e-06
1.5429461e-06
1.5429461e-06
1.5429818e-06
1.5430397e-06
1.5430962e-06
1.5431225e-06
1.543092e-06
1.5429849e-06
1.5427927e-06
1.5425179e-06
1.5421711e-06
1.5417623e-06
1.5417202e-06
1.5420539e-06
1.5423533e-06
1.5426218e-06
1.5428505e-06
1.5430262e-06
1.5431378e-06
1.5431818e-06
1.543165e-06
1.5431045e-06
1.5430247e-06
1.5429524e-06
1.5429098e-06
1.5429098e-06
1.5429524e-06
1.5430246e-06
1.5431041e-06
1.5431642e-06
1.5431802e-06
1.543135e-06
1.5430216e-06
1.5428438e-06
1.5426125e-06
1.5423414e-06
1.5420405e-06
1.4328326e-06
1.4329101e-06
1.4333767e-06
1.4337694e-06
1.4340747e-06
1.4342803e-06
1.4343831e-06
1.4343935e-06
1.4343363e-06
1.4342456e-06
1.4341586e-06
1.4341063e-06
1.4341062e-06
1.4341585e-06
1.4342454e-06
1.4343362e-06
1.4343938e-06
1.4343839e-06
1.4342821e-06
1.434078e-06
1.4337749e-06
1.4333855e-06
1.4329233e-06
1.4328493e-06
1.4331922e-06
1.4335173e-06
1.43382e-06
1.4340829e-06
1.4342854e-06
1.4344108e-06
1.4344523e-06
1.4344175e-06
1.434328e-06
1.4342155e-06
1.4341152e-06
1.4340566e-06
1.4340566e-06
1.4341153e-06
1.4342157e-06
1.4343279e-06
1.434417e-06
1.434451e-06
1.4344082e-06
1.434281e-06
1.4340759e-06
1.4338097e-06
1.4335036e-06
1.4331759e-06
1.4564624e-06
1.4566115e-06
1.4571728e-06
1.4576391e-06
1.4579965e-06
1.4582286e-06
1.4583288e-06
1.4583093e-06
1.4582024e-06
1.4580554e-06
1.4579199e-06
1.4578396e-06
1.4578394e-06
1.4579194e-06
1.4580548e-06
1.4582018e-06
1.458309e-06
1.4583292e-06
1.4582301e-06
1.4579997e-06
1.4576448e-06
1.4571824e-06
1.4566279e-06
1.4564892e-06
1.4568494e-06
1.4572231e-06
1.4575884e-06
1.4579142e-06
1.4581672e-06
1.4583203e-06
1.458361e-06
1.4582976e-06
1.4581595e-06
1.4579915e-06
1.4578432e-06
1.4577571e-06
1.4577572e-06
1.4578437e-06
1.457992e-06
1.4581599e-06
1.4582975e-06
1.4583599e-06
1.4583176e-06
1.4581622e-06
1.4579058e-06
1.4575755e-06
1.4572048e-06
1.4568255e-06
1.6876882e-06
1.6879601e-06
1.6886367e-06
1.6891927e-06
1.6896195e-06
1.6898919e-06
1.6899965e-06
1.6899462e-06
1.6897829e-06
1.6895699e-06
1.6893769e-06
1.6892633e-06
1.689263e-06
1.6893762e-06
1.6895689e-06
1.6897819e-06
1.6899455e-06
1.6899966e-06
1.6898934e-06
1.6896229e-06
1.689199e-06
1.6886472e-06
1.6879795e-06
1.6877402e-06
1.6881396e-06
1.6885869e-06
1.6890369e-06
1.689445e-06
1.6897643e-06
1.6899547e-06
1.6899969e-06
1.6899004e-06
1.6897043e-06
1.6894692e-06
1.689263e-06
1.6891434e-06
1.6891437e-06
1.6892637e-06
1.6894701e-06
1.6897051e-06
1.6899007e-06
1.689996e-06
1.6899518e-06
1.6897582e-06
1.6894346e-06
1.6890204e-06
1.6885623e-06
1.6881029e-06
2.175735e-06
2.1762898e-06
2.1770605e-06
2.177674e-06
2.1781457e-06
2.1784434e-06
2.1785472e-06
2.1784702e-06
2.1782618e-06
2.1779974e-06
2.1777603e-06
2.1776213e-06
2.177621e-06
2.1777594e-06
2.1779961e-06
2.1782606e-06
2.1784693e-06
2.1785472e-06
2.178445e-06
2.1781495e-06
2.1776803e-06
2.1770684e-06
2.1762996e-06
2.1758812e-06
2.1763691e-06
2.1769026e-06
2.1774248e-06
2.1778946e-06
2.1782608e-06
2.1784762e-06
2.1785167e-06
2.1783932e-06
2.178152e-06
2.1778658e-06
2.1776159e-06
2.1774713e-06
2.1774716e-06
2.1776168e-06
2.1778671e-06
2.1781532e-06
2.1783937e-06
2.1785159e-06
2.1784729e-06
2.1782537e-06
2.1778821e-06
2.1774044e-06
2.1768696e-06
2.1763051e-06
2.8678241e-06
2.8685245e-06
2.8691502e-06
2.86967e-06
2.8700698e-06
2.8703217e-06
2.8704107e-06
2.8703493e-06
2.8701792e-06
2.8699632e-06
2.8697698e-06
2.8696565e-06
2.8696563e-06
2.8697691e-06
2.8699624e-06
2.8701784e-06
2.8703488e-06
2.8704112e-06
2.8703236e-06
2.8700736e-06
2.8696747e-06
2.8691452e-06
2.8684276e-06
2.8677244e-06
2.8683909e-06
2.868959e-06
2.8694407e-06
2.8698476e-06
2.870156e-06
2.8703353e-06
2.870369e-06
2.8702675e-06
2.8700697e-06
2.8698358e-06
2.8696318e-06
2.8695139e-06
2.8695142e-06
2.8696325e-06
2.8698367e-06
2.8700706e-06
2.8702677e-06
2.8703679e-06
2.8703318e-06
2.8701488e-06
2.8698347e-06
2.8694193e-06
2.8689207e-06
2.8682815e-06
3.5966079e-06
3.597086e-06
3.5974472e-06
3.5977145e-06
3.5979048e-06
3.5980267e-06
3.5980869e-06
3.5980954e-06
3.5980677e-06
3.5980228e-06
3.5979794e-06
3.5979533e-06
3.5979533e-06
3.5979795e-06
3.5980229e-06
3.5980681e-06
3.5980962e-06
3.5980884e-06
3.5980293e-06
3.5979085e-06
3.5977181e-06
3.597441e-06
3.597021e-06
3.5963414e-06
3.5968296e-06
3.5973471e-06
3.5976417e-06
3.5978336e-06
3.5979597e-06
3.5980319e-06
3.5980555e-06
3.5980382e-06
3.5979929e-06
3.5979365e-06
3.5978863e-06
3.5978568e-06
3.5978569e-06
3.5978863e-06
3.5979365e-06
3.5979926e-06
3.5980372e-06
3.5980535e-06
3.5980282e-06
3.5979532e-06
3.5978226e-06
3.5976242e-06
3.5973213e-06
3.5968092e-06
3.9958398e-06
3.996151e-06
3.9962805e-06
3.9963014e-06
3.9962795e-06
3.9962687e-06
3.996301e-06
3.9963838e-06
3.9965028e-06
3.9966293e-06
3.996732e-06
3.9967885e-06
3.9967887e-06
3.9967326e-06
3.9966303e-06
3.9965044e-06
3.9963859e-06
3.9963036e-06
3.9962719e-06
3.9962831e-06
3.9963041e-06
3.9962761e-06
3.9961178e-06
3.99574e-06
3.9959315e-06
3.9962954e-06
3.9963913e-06
3.996367e-06
3.9963097e-06
3.9962744e-06
3.9962902e-06
3.9963615e-06
3.9964719e-06
3.9965917e-06
3.9966893e-06
3.9967427e-06
3.9967425e-06
3.9966886e-06
3.9965905e-06
3.9964703e-06
3.9963593e-06
3.9962872e-06
3.9962704e-06
3.9963041e-06
3.9963588e-06
3.9963791e-06
3.9962805e-06
3.9959309e-06
3.3941278e-06
3.3944159e-06
3.3945424e-06
3.3945705e-06
3.3945563e-06
3.394546e-06
3.394568e-06
3.3946283e-06
3.3947135e-06
3.3948003e-06
3.3948671e-06
3.3949022e-06
3.3949024e-06
3.3948677e-06
3.3948014e-06
3.394715e-06
3.3946302e-06
3.3945704e-06
3.3945488e-06
3.3945589e-06
3.3945711e-06
3.3945346e-06
3.3943839e-06
3.3940588e-06
3.3941714e-06
3.394504e-06
3.3946128e-06
3.3946129e-06
3.3945771e-06
3.3945527e-06
3.3945653e-06
3.3946183e-06
3.3946972e-06
3.3947782e-06
3.3948403e-06
3.3948725e-06
3.3948723e-06
3.3948397e-06
3.3947771e-06
3.3946956e-06
3.3946161e-06
3.3945625e-06
3.3945493e-06
3.3945727e-06
3.394607e-06
3.3946052e-06
3.3944974e-06
3.3941818e-06
2.7621643e-06
2.7624156e-06
2.7625235e-06
2.7625509e-06
2.7625457e-06
2.7625409e-06
2.7625549e-06
2.7625918e-06
2.7626437e-06
2.7626971e-06
2.7627391e-06
2.7627619e-06
2.7627621e-06
2.7627396e-06
2.7626979e-06
2.7626449e-06
2.7625934e-06
2.7625568e-06
2.7625429e-06
2.7625473e-06
2.7625499e-06
2.7625142e-06
2.7623874e-06
2.7621157e-06
2.7621762e-06
2.7624588e-06
2.7625606e-06
2.7625742e-06
2.762558e-06
2.7625459e-06
2.7625548e-06
2.7625875e-06
2.7626355e-06
2.7626854e-06
2.7627247e-06
2.7627458e-06
2.7627456e-06
2.7627241e-06
2.7626845e-06
2.7626342e-06
2.7625857e-06
2.7625527e-06
2.7625433e-06
2.7625549e-06
2.7625705e-06
2.7625569e-06
2.7624586e-06
2.7621918e-06
2.1851152e-06
2.1853329e-06
2.1854225e-06
2.1854442e-06
2.1854409e-06
2.1854376e-06
2.1854459e-06
2.1854685e-06
2.1855011e-06
2.185536e-06
2.185565e-06
2.1855814e-06
2.1855816e-06
2.1855654e-06
2.1855367e-06
2.185502e-06
2.1854696e-06
2.1854473e-06
2.185439e-06
2.1854417e-06
2.1854425e-06
2.1854136e-06
2.1853096e-06
2.18508e-06
2.1851129e-06
2.1853507e-06
2.1854395e-06
2.1854552e-06
2.1854471e-06
2.1854404e-06
2.1854462e-06
2.1854665e-06
2.1854971e-06
2.1855302e-06
2.1855578e-06
2.1855733e-06
2.1855732e-06
2.1855574e-06
2.1855295e-06
2.185496e-06
2.1854652e-06
2.1854447e-06
2.1854386e-06
2.185445e-06
2.1854531e-06
2.1854382e-06
2.1853536e-06
2.1851286e-06
1.6730978e-06
1.6732896e-06
1.6733702e-06
1.6733924e-06
1.6733935e-06
1.6733924e-06
1.6733974e-06
1.67341e-06
1.6734284e-06
1.6734483e-06
1.6734651e-06
1.6734747e-06
1.6734748e-06
1.6734654e-06
1.6734488e-06
1.673429e-06
1.6734108e-06
1.6733983e-06
1.6733933e-06
1.6733938e-06
1.6733906e-06
1.6733627e-06
1.6732717e-06
1.6730723e-06
1.6730913e-06
1.6732965e-06
1.6733779e-06
1.6733975e-06
1.6733963e-06
1.6733936e-06
1.6733972e-06
1.6734086e-06
1.6734258e-06
1.6734447e-06
1.6734607e-06
1.6734698e-06
1.6734697e-06
1.6734604e-06
1.6734442e-06
1.6734251e-06
1.6734078e-06
1.6733962e-06
1.6733924e-06
1.673395e-06
1.6733963e-06
1.6733776e-06
1.6733e-06
1.6731046e-06
1.2274486e-06
1.2276148e-06
1.2276863e-06
1.227709e-06
1.2277137e-06
1.2277148e-06
1.2277178e-06
1.2277239e-06
1.2277325e-06
1.2277417e-06
1.2277494e-06
1.2277538e-06
1.2277538e-06
1.2277495e-06
1.227742e-06
1.2277329e-06
1.2277244e-06
1.2277183e-06
1.2277153e-06
1.2277138e-06
1.2277075e-06
1.2276807e-06
1.227602e-06
1.227431e-06
1.2274424e-06
1.2276174e-06
1.2276901e-06
1.2277114e-06
1.2277148e-06
1.227715e-06
1.2277172e-06
1.2277226e-06
1.2277304e-06
1.2277389e-06
1.2277461e-06
1.2277502e-06
1.2277501e-06
1.2277459e-06
1.2277386e-06
1.22773e-06
1.227722e-06
1.2277165e-06
1.2277142e-06
1.227714e-06
1.2277107e-06
1.2276902e-06
1.2276205e-06
1.2274524e-06
8.5421911e-07
8.543561e-07
8.5441464e-07
8.5443428e-07
8.5443973e-07
8.5444154e-07
8.5444333e-07
8.5444597e-07
8.5444931e-07
8.5445275e-07
8.5445558e-07
8.5445718e-07
8.5445722e-07
8.5445568e-07
8.5445291e-07
8.5444954e-07
8.5444627e-07
8.5444367e-07
8.5444186e-07
8.5443977e-07
8.5443325e-07
8.5441083e-07
8.5434757e-07
8.5420761e-07
8.5421437e-07
8.54357e-07
8.544165e-07
8.5443546e-07
8.5444017e-07
8.5444138e-07
8.5444264e-07
8.5444479e-07
8.5444767e-07
8.5445072e-07
8.5445325e-07
8.5445467e-07
8.5445464e-07
8.5445315e-07
8.5445054e-07
8.5444743e-07
8.5444447e-07
8.5444225e-07
8.5444093e-07
8.5443968e-07
8.5443507e-07
8.5441668e-07
8.5435919e-07
8.5422122e-07
5.6243821e-07
5.6254384e-07
5.6258759e-07
5.6260221e-07
5.6260661e-07
5.6260815e-07
5.6260916e-07
5.6261021e-07
5.6261131e-07
5.6261235e-07
5.6261317e-07
5.6261363e-07
5.6261365e-07
5.6261323e-07
5.6261245e-07
5.6261144e-07
5.6261038e-07
5.6260936e-07
5.6260834e-07
5.6260662e-07
5.6260158e-07
5.6258527e-07
5.6253866e-07
5.6243127e-07
5.6243511e-07
5.6254409e-07
5.6258848e-07
5.6260275e-07
5.6260672e-07
5.6260791e-07
5.626086e-07
5.6260935e-07
5.6261019e-07
5.62611e-07
5.6261165e-07
5.62612e-07
5.6261198e-07
5.6261159e-07
5.6261091e-07
5.6261005e-07
5.6260917e-07
5.6260838e-07
5.6260765e-07
5.6260644e-07
5.6260253e-07
5.6258862e-07
5.6254548e-07
5.6243937e-07
3.5284762e-07
3.5292334e-07
3.5295332e-07
3.5296298e-07
3.5296589e-07
3.5296692e-07
3.5296746e-07
3.5296786e-07
3.5296816e-07
3.5296838e-07
3.5296853e-07
3.5296861e-07
3.5296862e-07
3.5296857e-07
3.5296844e-07
3.5296823e-07
3.5296795e-07
3.5296757e-07
3.5296703e-07
3.5296591e-07
3.5296265e-07
3.5295205e-07
3.5292048e-07
3.528438e-07
3.5284583e-07
3.5292336e-07
3.5295372e-07
3.5296321e-07
3.5296589e-07
3.5296671e-07
3.5296708e-07
3.529673e-07
3.5296746e-07
3.5296756e-07
3.5296762e-07
3.5296764e-07
3.5296763e-07
3.5296758e-07
3.5296751e-07
3.5296738e-07
3.5296721e-07
3.5296696e-07
3.5296657e-07
3.5296573e-07
3.5296308e-07
3.5295379e-07
3.5292415e-07
3.5284824e-07
2.1275056e-07
2.1280097e-07
2.1281991e-07
2.1282571e-07
2.128274e-07
2.1282799e-07
2.1282827e-07
2.1282841e-07
2.1282848e-07
2.1282848e-07
2.1282847e-07
2.1282845e-07
2.1282846e-07
2.1282848e-07
2.1282851e-07
2.1282852e-07
2.1282847e-07
2.1282833e-07
2.1282805e-07
2.1282742e-07
2.1282555e-07
2.1281929e-07
2.1279955e-07
2.1274865e-07
2.1274963e-07
2.1280094e-07
2.1282007e-07
2.1282579e-07
2.1282736e-07
2.1282784e-07
2.1282803e-07
2.1282809e-07
2.1282807e-07
2.1282801e-07
2.1282794e-07
2.128279e-07
2.1282789e-07
2.1282793e-07
2.1282798e-07
2.1282803e-07
2.1282803e-07
2.1282796e-07
2.1282777e-07
2.1282727e-07
2.1282571e-07
2.128201e-07
2.1280134e-07
2.1275087e-07
1.2439636e-07
1.2442761e-07
1.2443868e-07
1.2444187e-07
1.2444276e-07
1.2444307e-07
1.2444321e-07
1.2444327e-07
1.2444328e-07
1.2444325e-07
1.2444322e-07
1.2444319e-07
1.244432e-07
1.2444323e-07
1.2444327e-07
1.244433e-07
1.244433e-07
1.2444324e-07
1.244431e-07
1.2444278e-07
1.2444181e-07
1.2443841e-07
1.2442697e-07
1.243955e-07
1.2439593e-07
1.2442758e-07
1.2443874e-07
1.2444189e-07
1.2444273e-07
1.2444298e-07
1.2444307e-07
1.2444309e-07
1.2444305e-07
1.2444299e-07
1.2444293e-07
1.2444289e-07
1.2444289e-07
1.2444292e-07
1.2444298e-07
1.2444303e-07
1.2444306e-07
1.2444304e-07
1.2444294e-07
1.2444268e-07
1.2444185e-07
1.2443875e-07
1.2442776e-07
1.243965e-07
7.1323168e-08
7.1341235e-08
7.134723e-08
7.1348849e-08
7.1349282e-08
7.1349433e-08
7.1349504e-08
7.1349533e-08
7.1349533e-08
7.1349515e-08
7.1349493e-08
7.134948e-08
7.1349482e-08
7.1349499e-08
7.1349524e-08
7.1349545e-08
7.1349549e-08
7.1349523e-08
7.1349453e-08
7.1349297e-08
7.1348835e-08
7.1347131e-08
7.1340984e-08
7.1322827e-08
7.1322994e-08
7.1341224e-08
7.1347253e-08
7.1348855e-08
7.1349261e-08
7.1349385e-08
7.1349431e-08
7.1349436e-08
7.1349414e-08
7.1349378e-08
7.1349342e-08
7.1349319e-08
7.1349317e-08
7.1349336e-08
7.1349369e-08
7.1349402e-08
7.134942e-08
7.1349411e-08
7.1349363e-08
7.1349235e-08
7.134883e-08
7.1347247e-08
7.1341291e-08
7.1323233e-08
4.0835168e-08
4.0844902e-08
4.0847892e-08
4.0848646e-08
4.0848842e-08
4.0848914e-08
4.0848951e-08
4.0848967e-08
4.0848969e-08
4.0848961e-08
4.0848951e-08
4.0848944e-08
4.0848945e-08
4.0848954e-08
4.0848966e-08
4.0848976e-08
4.0848976e-08
4.0848962e-08
4.0848926e-08
4.0848853e-08
4.0848648e-08
4.0847864e-08
4.0844819e-08
4.0835054e-08
4.083511e-08
4.0844901e-08
4.0847902e-08
4.0848647e-08
4.084883e-08
4.0848889e-08
4.0848912e-08
4.0848916e-08
4.0848906e-08
4.0848887e-08
4.0848866e-08
4.0848854e-08
4.0848853e-08
4.0848863e-08
4.0848882e-08
4.0848898e-08
4.0848907e-08
4.0848901e-08
4.0848875e-08
4.0848815e-08
4.0848632e-08
4.0847893e-08
4.084492e-08
4.0835196e-08
2.4051075e-08
2.4055948e-08
2.4057306e-08
2.4057626e-08
2.4057709e-08
2.4057744e-08
2.4057764e-08
2.4057775e-08
2.4057778e-08
2.4057775e-08
2.4057768e-08
2.4057765e-08
2.4057765e-08
2.4057769e-08
2.4057778e-08
2.4057782e-08
2.405778e-08
2.4057771e-08
2.4057752e-08
2.4057717e-08
2.4057631e-08
2.4057303e-08
2.4055928e-08
2.4051047e-08
2.4051062e-08
2.4055952e-08
2.4057311e-08
2.4057626e-08
2.4057703e-08
2.4057731e-08
2.4057743e-08
2.4057747e-08
2.4057742e-08
2.4057726e-08
2.4057692e-08
2.4057683e-08
2.4057683e-08
2.405769e-08
2.4057723e-08
2.4057737e-08
2.4057741e-08
2.4057737e-08
2.4057723e-08
2.4057694e-08
2.4057616e-08
2.4057304e-08
2.4055953e-08
2.4051087e-08
1.50924e-08
1.5094691e-08
1.509525e-08
1.5095373e-08
1.5095408e-08
1.5095427e-08
1.5095439e-08
1.5095446e-08
1.5095448e-08
1.5095441e-08
1.5095416e-08
1.5095413e-08
1.5095413e-08
1.5095417e-08
1.5095443e-08
1.5095451e-08
1.509545e-08
1.5095443e-08
1.5095432e-08
1.5095414e-08
1.5095379e-08
1.5095254e-08
1.5094691e-08
1.5092398e-08
1.50924e-08
1.5094695e-08
1.5095254e-08
1.5095374e-08
1.5095405e-08
1.5095419e-08
1.5095427e-08
1.5095429e-08
1.5095418e-08
1.5095367e-08
1.5095201e-08
1.5095185e-08
1.5095184e-08
1.5095199e-08
1.5095365e-08
1.5095415e-08
1.5095425e-08
1.5095422e-08
1.5095414e-08
1.5095399e-08
1.5095367e-08
1.5095248e-08
1.5094692e-08
1.5092404e-08
1.0262541e-08
1.0263612e-08
1.0263829e-08
1.0263875e-08
1.0263891e-08
1.0263902e-08
1.026391e-08
1.0263914e-08
1.0263909e-08
1.0263872e-08
1.0263736e-08
1.0263726e-08
1.0263726e-08
1.0263737e-08
1.0263873e-08
1.0263911e-08
1.0263917e-08
1.0263913e-08
1.0263906e-08
1.0263895e-08
1.0263879e-08
1.0263834e-08
1.0263615e-08
1.0262544e-08
1.0262544e-08
1.0263616e-08
1.0263832e-08
1.0263875e-08
1.0263889e-08
1.0263897e-08
1.0263902e-08
1.0263898e-08
1.026385e-08
1.0263624e-08
1.0262733e-08
1.0262699e-08
1.0262699e-08
1.0262732e-08
1.0263622e-08
1.0263848e-08
1.0263896e-08
1.0263899e-08
1.0263893e-08
1.0263885e-08
1.0263871e-08
1.0263827e-08
1.0263611e-08
1.0262542e-08
7.4427246e-09
7.4432718e-09
7.4433611e-09
7.4433795e-09
7.4433886e-09
7.4433957e-09
7.4434011e-09
7.4434008e-09
7.4433669e-09
7.4431962e-09
7.4425325e-09
7.4425094e-09
7.4425096e-09
7.442533e-09
7.4431974e-09
7.4433685e-09
7.4434028e-09
7.4434035e-09
7.4433985e-09
7.4433917e-09
7.4433829e-09
7.4433646e-09
7.4432754e-09
7.4427284e-09
7.442728e-09
7.4432747e-09
7.443363e-09
7.44338e-09
7.4433873e-09
7.4433924e-09
7.443394e-09
7.4433721e-09
7.443173e-09
7.4422713e-09
7.4405333e-09
7.440579e-09
7.4405788e-09
7.4405325e-09
7.44227e-09
7.4431715e-09
7.44337e-09
7.4433916e-09
7.4433896e-09
7.443384e-09
7.4433765e-09
7.4433593e-09
7.4432711e-09
7.4427249e-09
5.59101e-09
5.5913299e-09
5.5913727e-09
5.5913819e-09
5.5913878e-09
5.5913928e-09
5.5913957e-09
5.591382e-09
5.5912372e-09
5.5905784e-09
5.5894393e-09
5.5894754e-09
5.5894756e-09
5.5894395e-09
5.5905793e-09
5.5912384e-09
5.5913835e-09
5.5913975e-09
5.591395e-09
5.5913902e-09
5.5913845e-09
5.5913755e-09
5.5913327e-09
5.5910129e-09
5.5910127e-09
5.5913321e-09
5.5913742e-09
5.5913823e-09
5.5913869e-09
5.5913902e-09
5.5913864e-09
5.5913086e-09
5.5905666e-09
5.5893399e-09
5.5899019e-09
5.5899622e-09
5.589962e-09
5.5899014e-09
5.5893389e-09
5.5905654e-09
5.5913071e-09
5.5913845e-09
5.591388e-09
5.5913844e-09
5.5913797e-09
5.5913713e-09
5.5913292e-09
5.59101e-09
4.2601377e-09
4.2603445e-09
4.2603686e-09
4.2603741e-09
4.2603782e-09
4.2603816e-09
4.2603805e-09
4.2603271e-09
4.2597826e-09
4.2589209e-09
4.2593606e-09
4.2594061e-09
4.2594061e-09
4.2593609e-09
4.2589215e-09
4.2597835e-09
4.2603282e-09
4.2603819e-09
4.2603833e-09
4.26038e-09
4.2603761e-09
4.2603707e-09
4.2603467e-09
4.26014e-09
4.2601398e-09
4.2603461e-09
4.2603696e-09
4.2603744e-09
4.2603774e-09
4.260379e-09
4.2603634e-09
4.2601451e-09
4.258922e-09
4.259334e-09
4.2597014e-09
4.259749e-09
4.2597489e-09
4.2597011e-09
4.2593333e-09
4.2589211e-09
4.2601439e-09
4.260362e-09
4.2603773e-09
4.2603756e-09
4.2603723e-09
4.2603675e-09
4.2603439e-09
4.2601377e-09
3.2603733e-09
3.2605134e-09
3.2605282e-09
3.2605318e-09
3.2605347e-09
3.2605367e-09
3.2605272e-09
3.2603725e-09
3.2594785e-09
3.2598027e-09
3.2600813e-09
3.2601157e-09
3.2601157e-09
3.2600816e-09
3.2598033e-09
3.2594792e-09
3.2603734e-09
3.2605283e-09
3.260538e-09
3.2605361e-09
3.2605333e-09
3.2605298e-09
3.2605151e-09
3.260375e-09
3.2603748e-09
3.2605146e-09
3.2605289e-09
3.260532e-09
3.260534e-09
3.2605331e-09
3.260492e-09
3.2600566e-09
3.2597761e-09
3.2600761e-09
3.260267e-09
3.2602946e-09
3.2602945e-09
3.2602667e-09
3.2600756e-09
3.2597755e-09
3.2600557e-09
3.2604909e-09
3.2605318e-09
3.2605327e-09
3.2605305e-09
3.2605273e-09
3.260513e-09
3.2603732e-09
2.4976794e-09
2.497776e-09
2.4977854e-09
2.4977879e-09
2.49779e-09
2.49779e-09
2.4977622e-09
2.4974452e-09
2.4972524e-09
2.4974793e-09
2.4976186e-09
2.4976377e-09
2.4976377e-09
2.4976188e-09
2.4974797e-09
2.497253e-09
2.4974459e-09
2.4977631e-09
2.497791e-09
2.497791e-09
2.4977891e-09
2.4977866e-09
2.4977773e-09
2.4976807e-09
2.4976806e-09
2.4977769e-09
2.497786e-09
2.497788e-09
2.4977892e-09
2.4977831e-09
2.4976708e-09
2.4970076e-09
2.4974521e-09
2.4976167e-09
2.4977005e-09
2.4977131e-09
2.497713e-09
2.4977003e-09
2.4976163e-09
2.4974517e-09
2.4970069e-09
2.49767e-09
2.4977821e-09
2.4977882e-09
2.4977869e-09
2.4977847e-09
2.4977757e-09
2.4976793e-09
1.9137275e-09
1.9137945e-09
1.9138006e-09
1.9138023e-09
1.9138036e-09
1.9138e-09
1.9137206e-09
1.9132333e-09
1.913573e-09
1.9136925e-09
1.9137509e-09
1.9137592e-09
1.9137593e-09
1.9137511e-09
1.9136928e-09
1.9135734e-09
1.9132339e-09
1.9137212e-09
1.9138007e-09
1.9138044e-09
1.9138032e-09
1.9138015e-09
1.9137954e-09
1.9137285e-09
1.9137284e-09
1.9137951e-09
1.913801e-09
1.9138024e-09
1.9138026e-09
1.913786e-09
1.9135515e-09
1.9134199e-09
1.9136735e-09
1.9137489e-09
1.9137797e-09
1.9137843e-09
1.9137842e-09
1.9137795e-09
1.9137486e-09
1.9136731e-09
1.9134194e-09
1.9135508e-09
1.9137853e-09
1.9138018e-09
1.9138015e-09
1.9138e-09
1.9137942e-09
1.9137275e-09
1.4666697e-09
1.4667162e-09
1.4667201e-09
1.4667213e-09
1.4667219e-09
1.4667108e-09
1.4665403e-09
1.4664505e-09
1.4666378e-09
1.4666901e-09
1.4667106e-09
1.4667135e-09
1.4667136e-09
1.4667107e-09
1.4666903e-09
1.4666381e-09
1.4664509e-09
1.4665408e-09
1.4667114e-09
1.4667225e-09
1.466722e-09
1.4667208e-09
1.4667169e-09
1.4666704e-09
1.4666704e-09
1.4667167e-09
1.4667204e-09
1.4667214e-09
1.4667202e-09
1.4666791e-09
1.4663049e-09
1.4665637e-09
1.4666798e-09
1.4667086e-09
1.4667181e-09
1.4667194e-09
1.4667194e-09
1.466718e-09
1.4667084e-09
1.4666795e-09
1.4665633e-09
1.4663044e-09
1.4666786e-09
1.4667196e-09
1.4667207e-09
1.4667197e-09
1.466716e-09
1.4666696e-09
1.1244974e-09
1.1245297e-09
1.1245323e-09
1.1245331e-09
1.1245326e-09
1.124504e-09
1.1242299e-09
1.1244258e-09
1.1245082e-09
1.1245273e-09
1.1245334e-09
1.1245343e-09
1.1245343e-09
1.1245335e-09
1.1245275e-09
1.1245085e-09
1.1244262e-09
1.1242303e-09
1.1245044e-09
1.1245331e-09
1.1245336e-09
1.1245328e-09
1.1245302e-09
1.124498e-09
1.1244979e-09
1.1245301e-09
1.1245325e-09
1.1245331e-09
1.1245309e-09
1.1244837e-09
1.1243413e-09
1.1244777e-09
1.1245226e-09
1.1245318e-09
1.1245343e-09
1.1245346e-09
1.1245346e-09
1.1245342e-09
1.1245317e-09
1.1245223e-09
1.1244774e-09
1.124341e-09
1.1244832e-09
1.1245303e-09
1.1245326e-09
1.124532e-09
1.1245295e-09
1.1244973e-09
8.6279494e-10
8.6281734e-10
8.6281904e-10
8.6281956e-10
8.6281831e-10
8.6278521e-10
8.6268426e-10
8.6278396e-10
8.6281442e-10
8.628203e-10
8.6282186e-10
8.6282215e-10
8.6282218e-10
8.6282196e-10
8.6282046e-10
8.6281459e-10
8.6278421e-10
8.6268457e-10
8.6278552e-10
8.6281865e-10
8.6281995e-10
8.6281944e-10
8.6281777e-10
8.6279538e-10
8.6279535e-10
8.6281766e-10
8.6281923e-10
8.6281948e-10
8.6281415e-10
8.6272339e-10
8.6274053e-10
8.6280339e-10
8.6281821e-10
8.6282077e-10
8.6282131e-10
8.6282136e-10
8.6282134e-10
8.6282121e-10
8.6282063e-10
8.6281804e-10
8.6280316e-10
8.6274024e-10
8.6272305e-10
8.6281374e-10
8.6281907e-10
8.6281881e-10
8.6281722e-10
8.6279487e-10
6.6345013e-10
6.6346569e-10
6.634668e-10
6.6346706e-10
6.6346355e-10
6.6339769e-10
6.6341337e-10
6.6345764e-10
6.6346729e-10
6.6346889e-10
6.6346929e-10
6.6346941e-10
6.6346943e-10
6.6346936e-10
6.63469e-10
6.6346741e-10
6.6345782e-10
6.634136e-10
6.6339794e-10
6.6346381e-10
6.6346736e-10
6.6346709e-10
6.6346601e-10
6.6345047e-10
6.6345045e-10
6.6346592e-10
6.6346695e-10
6.6346681e-10
6.6345343e-10
6.6330696e-10
6.6343871e-10
6.6346358e-10
6.6346785e-10
6.634685e-10
6.6346862e-10
6.6346862e-10
6.634686e-10
6.6346854e-10
6.634684e-10
6.6346774e-10
6.6346341e-10
6.6343849e-10
6.633067e-10
6.6345311e-10
6.6346648e-10
6.6346661e-10
6.6346559e-10
6.6345008e-10
5.1217267e-10
5.1218348e-10
5.1218422e-10
5.1218419e-10
5.1217491e-10
5.1206848e-10
5.1216595e-10
5.1218281e-10
5.1218554e-10
5.1218599e-10
5.1218612e-10
5.1218619e-10
5.1218621e-10
5.1218617e-10
5.1218605e-10
5.1218564e-10
5.1218296e-10
5.1216611e-10
5.1206867e-10
5.1217511e-10
5.1218441e-10
5.1218442e-10
5.1218372e-10
5.1217293e-10
5.1217291e-10
5.1218366e-10
5.1218433e-10
5.1218406e-10
5.1217209e-10
5.121174e-10
5.1217571e-10
5.1218424e-10
5.1218536e-10
5.1218554e-10
5.1218558e-10
5.1218558e-10
5.1218556e-10
5.1218553e-10
5.1218547e-10
5.1218528e-10
5.1218412e-10
5.1217552e-10
5.1211719e-10
5.1217184e-10
5.1218381e-10
5.1218406e-10
5.121834e-10
5.1217264e-10
3.9758311e-10
3.9759063e-10
3.9759113e-10
3.9759099e-10
3.9758272e-10
3.9754434e-10
3.9758596e-10
3.9759154e-10
3.9759231e-10
3.9759247e-10
3.9759254e-10
3.9759259e-10
3.975926e-10
3.9759257e-10
3.9759251e-10
3.9759238e-10
3.9759167e-10
3.9758608e-10
3.9754447e-10
3.9758287e-10
3.9759117e-10
3.9759127e-10
3.9759081e-10
3.975833e-10
3.9758329e-10
3.9759077e-10
3.975912e-10
3.9759077e-10
3.9757906e-10
3.9756656e-10
3.9758914e-10
3.9759174e-10
3.9759204e-10
3.9759211e-10
3.9759214e-10
3.9759215e-10
3.9759213e-10
3.975921e-10
3.9759206e-10
3.9759198e-10
3.9759165e-10
3.9758899e-10
3.975664e-10
3.9757888e-10
3.9759058e-10
3.9759099e-10
3.9759058e-10
3.9758309e-10
3.1088975e-10
3.1089499e-10
3.1089533e-10
3.1089506e-10
3.108868e-10
3.1087875e-10
3.1089432e-10
3.1089598e-10
3.1089624e-10
3.1089633e-10
3.1089638e-10
3.1089642e-10
3.1089643e-10
3.1089641e-10
3.1089636e-10
3.1089629e-10
3.1089609e-10
3.1089441e-10
3.1087885e-10
3.1088691e-10
3.108952e-10
3.1089544e-10
3.1089513e-10
3.108899e-10
3.1088989e-10
3.108951e-10
3.1089536e-10
3.1089416e-10
3.1086864e-10
3.1088582e-10
3.1089514e-10
3.1089592e-10
3.1089602e-10
3.1089607e-10
3.1089608e-10
3.108961e-10
3.1089608e-10
3.1089605e-10
3.1089603e-10
3.1089597e-10
3.1089584e-10
3.1089502e-10
3.108857e-10
3.1086852e-10
3.1089403e-10
3.108952e-10
3.1089496e-10
3.1088974e-10
2.4537434e-10
2.45378e-10
2.4537821e-10
2.4537738e-10
2.4535863e-10
2.4537195e-10
2.4537828e-10
2.4537879e-10
2.4537891e-10
2.4537897e-10
2.4537902e-10
2.4537905e-10
2.4537904e-10
2.4537903e-10
2.45379e-10
2.4537895e-10
2.4537886e-10
2.4537835e-10
2.4537202e-10
2.4535872e-10
2.453775e-10
2.4537831e-10
2.4537811e-10
2.4537446e-10
2.4537445e-10
2.4537809e-10
2.453782e-10
2.4537497e-10
2.4533429e-10
2.4537491e-10
2.4537844e-10
2.453787e-10
2.4537875e-10
2.4537878e-10
2.453788e-10
2.4537881e-10
2.453788e-10
2.4537877e-10
2.4537876e-10
2.453787e-10
2.4537863e-10
2.4537836e-10
2.4537483e-10
2.453342e-10
2.4537487e-10
2.4537808e-10
2.4537798e-10
2.4537434e-10
1.9591552e-10
1.9591807e-10
1.9591818e-10
1.9591591e-10
1.9588645e-10
1.9591612e-10
1.959185e-10
1.9591867e-10
1.9591874e-10
1.9591879e-10
1.9591882e-10
1.9591884e-10
1.9591884e-10
1.9591884e-10
1.9591881e-10
1.9591878e-10
1.9591872e-10
1.9591854e-10
1.9591618e-10
1.9588652e-10
1.95916e-10
1.9591826e-10
1.9591817e-10
1.9591561e-10
1.9591561e-10
1.9591816e-10
1.959182e-10
1.9591554e-10
1.9590228e-10
1.9591733e-10
1.959185e-10
1.9591859e-10
1.9591863e-10
1.9591865e-10
1.9591866e-10
1.9591867e-10
1.9591866e-10
1.9591864e-10
1.9591863e-10
1.9591859e-10
1.9591854e-10
1.9591843e-10
1.9591727e-10
1.9590221e-10
1.9591548e-10
1.9591811e-10
1.9591807e-10
1.9591553e-10
1.5861655e-10
1.5861834e-10
1.5861841e-10
1.5861655e-10
1.5860736e-10
1.5861792e-10
1.586187e-10
1.5861878e-10
1.5861883e-10
1.5861887e-10
1.5861889e-10
1.586189e-10
1.586189e-10
1.586189e-10
1.5861888e-10
1.5861885e-10
1.5861881e-10
1.5861873e-10
1.5861797e-10
1.5860742e-10
1.5861662e-10
1.5861846e-10
1.5861841e-10
1.5861662e-10
1.5861661e-10
1.5861841e-10
1.5861843e-10
1.5861659e-10
1.5861338e-10
1.5861832e-10
1.5861867e-10
1.5861872e-10
1.5861874e-10
1.5861875e-10