/*--------------------------------*- C++ -*----------------------------------*\
| =========                 |                                                 |
| \\      /  F ield         | OpenFOAM: The Open Source CFD Toolbox           |
|  \\    /   O peration     | Version:  v1912                                 |
|   \\  /    A nd           | Website:  www.openfoam.com                      |
|    \\/     M anipulation  |                                                 |
\*---------------------------------------------------------------------------*/
FoamFile
{
    version     2.0;
    format      ascii;
    class       volScalarField;
    location    "2";
    object      Qdt;
}
// * * * * * * * * * * * * * * * * * * * * * * * * * * * * * * * * * * * * * //

dimensions      [1 -1 -3 0 0 0 0];


internalField   nonuniform List<scalar> 
255504
(
5.5460801e-17
5.535242e-17
5.5464188e-17
5.5713814e-17
5.5902493e-17
5.6035666e-17
5.6119911e-17
5.6163248e-17
5.6175975e-17
5.6170155e-17
5.6157881e-17
5.6148997e-17
5.6149042e-17
5.6158045e-17
5.6170521e-17
5.6176681e-17
5.6164479e-17
5.6121886e-17
5.6038615e-17
5.5906622e-17
5.5719253e-17
5.5470939e-17
5.5361826e-17
5.547018e-17
5.5597289e-17
5.5730727e-17
5.5859901e-17
5.5975421e-17
5.6069035e-17
5.6134805e-17
5.6170568e-17
5.6178802e-17
5.6166393e-17
5.6143262e-17
5.6120125e-17
5.6105977e-17
5.6105921e-17
5.6119928e-17
5.6142836e-17
5.6165596e-17
5.6177446e-17
5.6168432e-17
5.6131653e-17
5.6064648e-17
5.5969624e-17
5.585259e-17
5.5721862e-17
5.5586807e-17
8.7659981e-17
8.7485773e-17
8.7794001e-17
8.8187918e-17
8.8470244e-17
8.8665955e-17
8.878408e-17
8.8835166e-17
8.8835765e-17
8.8807346e-17
8.8772411e-17
8.8749651e-17
8.8749673e-17
8.8772524e-17
8.8807688e-17
8.8836566e-17
8.8836737e-17
8.8786806e-17
8.8670259e-17
8.847653e-17
8.8196474e-17
8.7804868e-17
8.7499935e-17
8.7675343e-17
8.7892108e-17
8.8116108e-17
8.8332213e-17
8.8525893e-17
8.8682134e-17
8.8789023e-17
8.8841562e-17
8.8843839e-17
8.8808793e-17
8.8755537e-17
8.8704944e-17
8.8674619e-17
8.8674578e-17
8.8704775e-17
8.8755093e-17
8.8807839e-17
8.8842056e-17
8.8838568e-17
8.8784405e-17
8.8675492e-17
8.8516919e-17
8.8320771e-17
8.8102294e-17
8.7876172e-17
1.6109319e-16
1.6110291e-16
1.6173996e-16
1.6231712e-16
1.6278503e-16
1.6311899e-16
1.6331067e-16
1.6337169e-16
1.6333349e-16
1.6324138e-16
1.6314453e-16
1.6308428e-16
1.6308423e-16
1.6314446e-16
1.6324155e-16
1.6333433e-16
1.6337382e-16
1.6331483e-16
1.6312608e-16
1.6279597e-16
1.6233267e-16
1.6176048e-16
1.6112694e-16
1.6112111e-16
1.6156393e-16
1.6199303e-16
1.6240876e-16
1.627856e-16
1.6308976e-16
1.6329263e-16
1.6338101e-16
1.6336252e-16
1.6326524e-16
1.6313169e-16
1.6300868e-16
1.6293588e-16
1.6293589e-16
1.6300864e-16
1.6313132e-16
1.6326409e-16
1.6335996e-16
1.633763e-16
1.6328491e-16
1.6307816e-16
1.6276943e-16
1.6238774e-16
1.6196758e-16
1.6153538e-16
2.949325e-16
2.9513158e-16
2.9625352e-16
2.9728113e-16
2.9812769e-16
2.9872601e-16
2.9904622e-16
2.9910591e-16
2.9896856e-16
2.9872966e-16
2.984942e-16
2.9835096e-16
2.9835072e-16
2.9849364e-16
2.9872927e-16
2.9896911e-16
2.9910853e-16
2.9905236e-16
2.9873744e-16
2.9814638e-16
2.9730887e-16
2.9629114e-16
2.9517757e-16
2.9498534e-16
2.957293e-16
2.9650559e-16
2.9728874e-16
2.9801376e-16
2.9860142e-16
2.9898521e-16
2.9913299e-16
2.9905874e-16
2.9882163e-16
2.9851285e-16
2.9823346e-16
2.9806934e-16
2.9806952e-16
2.9823383e-16
2.9851289e-16
2.9882051e-16
2.9905528e-16
2.9912574e-16
2.9897246e-16
2.9858135e-16
2.9798474e-16
2.9724993e-16
2.9645771e-16
2.9567546e-16
5.0762441e-16
5.0805413e-16
5.1001144e-16
5.1181526e-16
5.1330098e-16
5.1433129e-16
5.148408e-16
5.1485932e-16
5.1450923e-16
5.1397799e-16
5.1347284e-16
5.1316967e-16
5.1316906e-16
5.1347129e-16
5.1397627e-16
5.1450869e-16
5.1486186e-16
5.1484897e-16
5.1434828e-16
5.1333063e-16
5.1186154e-16
5.1007706e-16
5.0813769e-16
5.0772125e-16
5.0892604e-16
5.1025488e-16
5.1164541e-16
5.1295736e-16
5.1402461e-16
5.1470833e-16
5.1493965e-16
5.147428e-16
5.1423315e-16
5.1359078e-16
5.1301632e-16
5.1268053e-16
5.1268106e-16
5.130176e-16
5.1359194e-16
5.1423273e-16
5.1473878e-16
5.1492943e-16
5.1468877e-16
5.1399213e-16
5.1290842e-16
5.1157765e-16
5.1016904e-16
5.0882825e-16
7.9343715e-16
7.9421143e-16
7.9734223e-16
8.0024949e-16
8.0263936e-16
8.0426348e-16
8.0500046e-16
8.0489846e-16
8.0417127e-16
8.0314964e-16
8.0220064e-16
8.0163624e-16
8.0163504e-16
8.0219742e-16
8.0314561e-16
8.0416845e-16
8.0489975e-16
8.0500977e-16
8.0428593e-16
8.0268154e-16
8.0031914e-16
7.9744624e-16
7.9435032e-16
7.9360136e-16
7.9539459e-16
7.9747971e-16
7.9973451e-16
8.0189613e-16
8.0365872e-16
8.0476756e-16
8.0509413e-16
8.0467699e-16
8.0371833e-16
8.025369e-16
8.0148913e-16
8.0087887e-16
8.0087999e-16
8.0149203e-16
8.025402e-16
8.0371979e-16
8.0467346e-16
8.0508148e-16
8.0474061e-16
8.0361119e-16
8.0182114e-16
7.9962637e-16
7.97338e-16
7.9522991e-16
1.0871079e-15
1.088322e-15
1.0927536e-15
1.0968933e-15
1.1002855e-15
1.1025446e-15
1.1034789e-15
1.1031582e-15
1.1019086e-15
1.1002378e-15
1.0987109e-15
1.0978088e-15
1.0978069e-15
1.0987056e-15
1.1002307e-15
1.1019025e-15
1.1031569e-15
1.1034875e-15
1.10257e-15
1.1003375e-15
1.0969845e-15
1.0928982e-15
1.0885266e-15
1.0873577e-15
1.0897226e-15
1.0926248e-15
1.0958556e-15
1.0989924e-15
1.1015529e-15
1.1031364e-15
1.1035384e-15
1.1028132e-15
1.1012697e-15
1.0993982e-15
1.0977486e-15
1.0967903e-15
1.0967922e-15
1.0977536e-15
1.0994045e-15
1.1012742e-15
1.1028117e-15
1.1035251e-15
1.103104e-15
1.1014918e-15
1.0988911e-15
1.0957026e-15
1.0924161e-15
1.0894735e-15
1.2491468e-15
1.2507779e-15
1.2561292e-15
1.261138e-15
1.2652219e-15
1.2678864e-15
1.268883e-15
1.2682978e-15
1.2665487e-15
1.2642897e-15
1.2622503e-15
1.2610514e-15
1.2610489e-15
1.2622433e-15
1.2642801e-15
1.2665394e-15
1.2682931e-15
1.2688886e-15
1.2679102e-15
1.2652751e-15
1.2612376e-15
1.2562981e-15
1.251035e-15
1.249479e-15
1.2521466e-15
1.2556052e-15
1.2595444e-15
1.2634023e-15
1.2665497e-15
1.2684649e-15
1.2688785e-15
1.2678561e-15
1.2657935e-15
1.2633233e-15
1.2611564e-15
1.2599e-15
1.2599026e-15
1.2611633e-15
1.2633325e-15
1.2658014e-15
1.2678578e-15
1.2688675e-15
1.2684322e-15
1.2664832e-15
1.2632858e-15
1.2593596e-15
1.2553408e-15
1.2518193e-15
1.1541215e-15
1.1559028e-15
1.1611111e-15
1.165966e-15
1.1699011e-15
1.1724315e-15
1.1733103e-15
1.1726231e-15
1.170788e-15
1.1684613e-15
1.1663745e-15
1.1651513e-15
1.1651488e-15
1.1663676e-15
1.1684515e-15
1.1707782e-15
1.172617e-15
1.1733132e-15
1.1724503e-15
1.1699461e-15
1.166054e-15
1.1612687e-15
1.1561623e-15
1.1544956e-15
1.1570075e-15
1.1603678e-15
1.1642145e-15
1.1679856e-15
1.1710557e-15
1.1729034e-15
1.1732572e-15
1.1721806e-15
1.1700695e-15
1.1675587e-15
1.1653621e-15
1.16409e-15
1.1640926e-15
1.1653692e-15
1.1675683e-15
1.1700783e-15
1.172184e-15
1.1732492e-15
1.1728755e-15
1.1709957e-15
1.1678764e-15
1.1640348e-15
1.1601008e-15
1.1566623e-15
8.431428e-16
8.4507215e-16
8.4921888e-16
8.5299696e-16
8.5602954e-16
8.5794918e-16
8.585638e-16
8.5794229e-16
8.5641857e-16
8.5451648e-16
8.528206e-16
8.5182898e-16
8.5182706e-16
8.5281521e-16
8.5450877e-16
8.564106e-16
8.5793681e-16
8.5856443e-16
8.5796077e-16
8.5605936e-16
8.5305781e-16
8.4933463e-16
8.4528839e-16
8.4367964e-16
8.4575012e-16
8.4844906e-16
8.5147932e-16
8.5442974e-16
8.5682076e-16
8.5824317e-16
8.584811e-16
8.5758418e-16
8.5586797e-16
8.5383925e-16
8.5206872e-16
8.5104439e-16
8.5104649e-16
8.5207442e-16
8.5384708e-16
8.5587545e-16
8.5758798e-16
8.5847666e-16
8.58224e-16
8.5677722e-16
8.5434725e-16
8.5133797e-16
8.482267e-16
8.4541839e-16
4.6938073e-16
4.7147764e-16
4.7388375e-16
4.7610111e-16
4.7787164e-16
4.789794e-16
4.7931288e-16
4.789144e-16
4.7798343e-16
4.7683243e-16
4.7581005e-16
4.7521325e-16
4.7521214e-16
4.7580696e-16
4.7682795e-16
4.7797874e-16
4.7891102e-16
4.793128e-16
4.7898518e-16
4.778871e-16
4.7613266e-16
4.7393738e-16
4.7149166e-16
4.6996821e-16
4.7156698e-16
4.7331359e-16
4.7514117e-16
4.7688669e-16
4.7829121e-16
4.7911901e-16
4.7924344e-16
4.7869418e-16
4.7765921e-16
4.764406e-16
4.7537887e-16
4.7476499e-16
4.7476622e-16
4.7538225e-16
4.7644531e-16
4.7766378e-16
4.786967e-16
4.792413e-16
4.7910848e-16
4.7826649e-16
4.7683854e-16
4.7505534e-16
4.7316178e-16
4.7119578e-16
2.0277992e-16
2.036986e-16
2.0476625e-16
2.0576033e-16
2.0655148e-16
2.0704226e-16
2.0718373e-16
2.0699585e-16
2.0656905e-16
2.0604451e-16
2.0557968e-16
2.0530866e-16
2.0530817e-16
2.0557835e-16
2.0604254e-16
2.06567e-16
2.0699436e-16
2.0718364e-16
2.0704464e-16
2.0655789e-16
2.0577315e-16
2.0478566e-16
2.0369301e-16
2.0260623e-16
2.035451e-16
2.044599e-16
2.0530778e-16
2.0609633e-16
2.0672544e-16
2.0709346e-16
2.0714452e-16
2.0689225e-16
2.0642156e-16
2.0586878e-16
2.0538773e-16
2.0510969e-16
2.0511022e-16
2.0538921e-16
2.0587089e-16
2.0642363e-16
2.0689342e-16
2.0714358e-16
2.0708882e-16
2.0671444e-16
2.0607455e-16
2.0526824e-16
2.0439056e-16
2.0342841e-16
7.1543854e-17
7.1863121e-17
7.2246806e-17
7.2606422e-17
7.2891798e-17
7.3067603e-17
7.3116604e-17
7.3046375e-17
7.2889857e-17
7.2698305e-17
7.2528836e-17
7.2430126e-17
7.2429946e-17
7.2528381e-17
7.2697614e-17
7.2889146e-17
7.3045852e-17
7.311657e-17
7.3068432e-17
7.2894017e-17
7.2610745e-17
7.2252873e-17
7.1860352e-17
7.1490903e-17
7.1763756e-17
7.2121019e-17
7.2436656e-17
7.2723673e-17
7.2950772e-17
7.3082767e-17
7.3099914e-17
7.300727e-17
7.2835636e-17
7.2634447e-17
7.245952e-17
7.2358439e-17
7.2358613e-17
7.2460035e-17
7.2635196e-17
7.2836382e-17
7.3007688e-17
7.3099556e-17
7.3081081e-17
7.2946783e-17
7.2715719e-17
7.2422132e-17
7.2096553e-17
7.1733367e-17
1.6898182e-17
1.6975057e-17
1.7068294e-17
1.7155607e-17
1.7224587e-17
1.7266844e-17
1.7278378e-17
1.7261114e-17
1.7223048e-17
1.7176573e-17
1.7135491e-17
1.7111575e-17
1.711153e-17
1.7135386e-17
1.7176412e-17
1.7222886e-17
1.7260997e-17
1.7278379e-17
1.7267054e-17
1.7225133e-17
1.7156636e-17
1.70696e-17
1.6973947e-17
1.6887064e-17
1.6945859e-17
1.7036213e-17
1.7113974e-17
1.7183558e-17
1.7238274e-17
1.7269931e-17
1.7273859e-17
1.7251299e-17
1.7209693e-17
1.7160977e-17
1.7118636e-17
1.7094171e-17
1.7094209e-17
1.7118754e-17
1.7161149e-17
1.7209869e-17
1.7251395e-17
1.7273762e-17
1.7269514e-17
1.7237297e-17
1.7181602e-17
1.7110387e-17
1.7030333e-17
1.6939817e-17
3.4476587e-18
3.4637258e-18
3.4832333e-18
3.5014574e-18
3.5157913e-18
3.524523e-18
3.5268508e-18
3.523193e-18
3.5152185e-18
3.5055079e-18
3.4969318e-18
3.4919419e-18
3.4919324e-18
3.4969109e-18
3.5054752e-18
3.5151867e-18
3.5231701e-18
3.5268522e-18
3.5245678e-18
3.5159058e-18
3.5016664e-18
3.4834759e-18
3.4634314e-18
3.4455835e-18
3.4569066e-18
3.4762643e-18
3.4926755e-18
3.5071754e-18
3.5185162e-18
3.5250485e-18
3.5258187e-18
3.5210879e-18
3.5124021e-18
3.5022445e-18
3.493419e-18
3.4883202e-18
3.4883277e-18
3.4934422e-18
3.5022785e-18
3.512438e-18
3.5211072e-18
3.5257979e-18
3.5249614e-18
3.5183122e-18
3.5067651e-18
3.4919203e-18
3.4750531e-18
3.4558105e-18
6.214333e-19
6.2439906e-19
6.2798997e-19
6.3133415e-19
6.339532e-19
6.3553943e-19
6.3595088e-19
6.3526685e-19
6.3379419e-19
6.320062e-19
6.304289e-19
6.2951167e-19
6.295099e-19
6.3042513e-19
6.3200034e-19
6.3378864e-19
6.3526289e-19
6.3595127e-19
6.3554769e-19
6.3397399e-19
6.3137107e-19
6.280295e-19
6.2433746e-19
6.2108478e-19
6.2304005e-19
6.2666203e-19
6.2970149e-19
6.3235892e-19
6.3442765e-19
6.3561405e-19
6.3574597e-19
6.3487151e-19
6.3327363e-19
6.3140759e-19
6.2978695e-19
6.2885092e-19
6.2885226e-19
6.2979108e-19
6.3141354e-19
6.3328014e-19
6.34875e-19
6.3574228e-19
6.3559831e-19
6.3439054e-19
6.3228377e-19
6.2956252e-19
6.2644289e-19
6.228593e-19
1.0042916e-19
1.0091908e-19
1.0150933e-19
1.0205698e-19
1.0248406e-19
1.027412e-19
1.0280587e-19
1.0269143e-19
1.0244827e-19
1.0215396e-19
1.0189466e-19
1.0174394e-19
1.0174366e-19
1.0189405e-19
1.0215302e-19
1.0244739e-19
1.0269081e-19
1.0280595e-19
1.0274253e-19
1.0248739e-19
1.0206275e-19
1.0151505e-19
1.0090812e-19
1.0037607e-19
1.0068134e-19
1.0128389e-19
1.0178562e-19
1.0222038e-19
1.025574e-19
1.0274986e-19
1.0276989e-19
1.0262539e-19
1.0236262e-19
1.0205619e-19
1.0179018e-19
1.016366e-19
1.0163682e-19
1.0179085e-19
1.0205714e-19
1.0236367e-19
1.0262595e-19
1.0276933e-19
1.0274735e-19
1.0255141e-19
1.0220814e-19
1.0176289e-19
1.0124851e-19
1.0065411e-19
1.4727918e-20
1.4801181e-20
1.4888885e-20
1.496992e-20
1.5032846e-20
1.5070502e-20
1.5079658e-20
1.506233e-20
1.5026002e-20
1.4982171e-20
1.4943605e-20
1.4921198e-20
1.4921158e-20
1.4943515e-20
1.4982036e-20
1.5025874e-20
1.506224e-20
1.507967e-20
1.5070695e-20
1.503332e-20
1.4970728e-20
1.4889628e-20
1.4799462e-20
1.4720528e-20
1.4763976e-20
1.4854346e-20
1.4929111e-20
1.4993393e-20
1.5043032e-20
1.5071262e-20
1.5073993e-20
1.505239e-20
1.5013299e-20
1.4967773e-20
1.4928271e-20
1.4905471e-20
1.4905504e-20
1.492837e-20
1.4967912e-20
1.5013452e-20
1.5052473e-20
1.5073918e-20
1.5070903e-20
1.5042162e-20
1.49916e-20
1.4925765e-20
1.4849184e-20
1.4760208e-20
1.9770919e-21
1.9870942e-21
1.9989802e-21
2.009913e-21
2.0183666e-21
2.0233942e-21
2.0245721e-21
2.0221775e-21
2.0172238e-21
2.0112657e-21
2.0060298e-21
2.0029891e-21
2.002984e-21
2.0060177e-21
2.0112478e-21
2.0172066e-21
2.0221655e-21
2.0245735e-21
2.0234191e-21
2.0184276e-21
2.0100155e-21
1.9990672e-21
1.9868513e-21
1.9761456e-21
1.9818197e-21
1.9941598e-21
2.0043113e-21
2.0129794e-21
2.0196491e-21
2.0234272e-21
2.0237643e-21
2.020817e-21
2.0155095e-21
2.0093358e-21
2.0039813e-21
2.0008916e-21
2.0008962e-21
2.0039948e-21
2.0093544e-21
2.0155297e-21
2.0208283e-21
2.0237552e-21
2.0233804e-21
2.0195343e-21
2.0127404e-21
2.0038634e-21
1.9934732e-21
1.9813384e-21
2.4426363e-22
2.4551705e-22
2.4699458e-22
2.4834722e-22
2.493887e-22
2.5000427e-22
2.5014279e-22
2.4983918e-22
2.4921923e-22
2.4847585e-22
2.4782343e-22
2.4744468e-22
2.4744409e-22
2.4782193e-22
2.484737e-22
2.492171e-22
2.498377e-22
2.5014293e-22
2.5000717e-22
2.4939582e-22
2.4835906e-22
2.4700378e-22
2.4548582e-22
2.4415173e-22
2.4483429e-22
2.4637814e-22
2.4764154e-22
2.4871364e-22
2.4953587e-22
2.4999988e-22
2.500378e-22
2.4966884e-22
2.490075e-22
2.4823904e-22
2.4757289e-22
2.4718855e-22
2.4718915e-22
2.4757455e-22
2.4824138e-22
2.4900993e-22
2.4967025e-22
2.5003678e-22
2.4999431e-22
2.49522e-22
2.4868449e-22
2.4758667e-22
2.4629444e-22
2.4477749e-22
2.7980033e-23
2.8125301e-23
2.8295079e-23
2.8449753e-23
2.8568344e-23
2.863801e-23
2.865302e-23
2.8617438e-23
2.8545688e-23
2.845991e-23
2.8384722e-23
2.834109e-23
2.8341025e-23
2.838455e-23
2.845967e-23
2.8545443e-23
2.861727e-23
2.865303e-23
2.863832e-23
2.8569111e-23
2.8451014e-23
2.8295961e-23
2.8121604e-23
2.7967728e-23
2.8043868e-23
2.8222283e-23
2.8367549e-23
2.8490124e-23
2.8583854e-23
2.8636559e-23
2.8640474e-23
2.8597768e-23
2.8521559e-23
2.8433092e-23
2.8356443e-23
2.8312221e-23
2.8312295e-23
2.8356632e-23
2.8433369e-23
2.8521834e-23
2.8597938e-23
2.8640372e-23
2.863595e-23
2.8582312e-23
2.8486846e-23
2.8361349e-23
2.8212854e-23
2.8037637e-23
2.9875445e-24
3.0032046e-24
3.0213427e-24
3.0377846e-24
3.050339e-24
3.0576695e-24
3.0591773e-24
3.0553015e-24
3.047579e-24
3.0383738e-24
3.0303144e-24
3.0256395e-24
3.0256324e-24
3.030296e-24
3.0383486e-24
3.0475533e-24
3.0552838e-24
3.0591774e-24
3.0577002e-24
3.0504161e-24
3.0379097e-24
3.021419e-24
3.0027988e-24
2.9862794e-24
2.9941974e-24
3.0133584e-24
3.0288808e-24
3.0419107e-24
3.0518481e-24
3.0574174e-24
3.0577901e-24
3.0531943e-24
3.0450261e-24
3.0355534e-24
3.02735e-24
3.0226172e-24
3.0226257e-24
3.0273704e-24
3.0355841e-24
3.0450558e-24
3.0532137e-24
3.0577813e-24
3.0573556e-24
3.0516895e-24
3.041569e-24
3.0282311e-24
3.0123713e-24
2.9935593e-24
2.9828951e-25
2.9986548e-25
3.0167376e-25
3.0330454e-25
3.0454472e-25
3.0526453e-25
3.0540552e-25
3.0501178e-25
3.0423613e-25
3.0331418e-25
3.0250784e-25
3.0204031e-25
3.0203957e-25
3.0250601e-25
3.033117e-25
3.0423365e-25
3.0501005e-25
3.0540544e-25
3.0526738e-25
3.0455199e-25
3.0331614e-25
3.016797e-25
2.9982401e-25
2.981675e-25
2.9893774e-25
3.0085751e-25
3.0240472e-25
3.0369723e-25
3.046807e-25
3.052302e-25
3.0526302e-25
3.0480157e-25
3.0398438e-25
3.0303764e-25
3.0221806e-25
3.0174527e-25
3.0174619e-25
3.0222017e-25
3.0304081e-25
3.0398745e-25
3.048036e-25
3.0526239e-25
3.0522437e-25
3.0466554e-25
3.0366406e-25
3.0234132e-25
3.0076115e-25
2.9887662e-25
2.7893298e-26
2.8041658e-26
2.8210239e-26
2.836147e-26
2.8476025e-26
2.854212e-26
2.855442e-26
2.8517047e-26
2.8444211e-26
2.8357867e-26
2.8282422e-26
2.8238696e-26
2.8238622e-26
2.8282252e-26
2.8357637e-26
2.8443989e-26
2.8516889e-26
2.8554406e-26
2.8542368e-26
2.8476666e-26
2.8362477e-26
2.8210649e-26
2.8037703e-26
2.7882242e-26
2.7952473e-26
2.8132306e-26
2.8276467e-26
2.8396347e-26
2.8487384e-26
2.853811e-26
2.8540794e-26
2.8497476e-26
2.8421023e-26
2.8332533e-26
2.8255949e-26
2.8211776e-26
2.8211867e-26
2.8256154e-26
2.8332834e-26
2.8421318e-26
2.8497671e-26
2.8540756e-26
2.85376e-26
2.8486034e-26
2.8393342e-26
2.8270688e-26
2.8123514e-26
2.7946986e-26
2.4440499e-27
2.4571263e-27
2.4718367e-27
2.4849618e-27
2.494865e-27
2.5005459e-27
2.5015482e-27
2.4982312e-27
2.4918317e-27
2.4842642e-27
2.4776574e-27
2.4738297e-27
2.4738229e-27
2.4776427e-27
2.484244e-27
2.491813e-27
2.4982176e-27
2.5015464e-27
2.5005658e-27
2.4949177e-27
2.4850432e-27
2.4718612e-27
2.4567741e-27
2.4431079e-27
2.449116e-27
2.4648823e-27
2.4774498e-27
2.4878554e-27
2.4957444e-27
2.5001296e-27
2.5003334e-27
2.4965288e-27
2.4898349e-27
2.4820933e-27
2.4753949e-27
2.4715319e-27
2.4715402e-27
2.4754135e-27
2.4821197e-27
2.489861e-27
2.4965459e-27
2.5003316e-27
2.5000879e-27
2.4956322e-27
2.487601e-27
2.476957e-27
2.4641314e-27
2.4486541e-27
1.982142e-28
1.9928445e-28
2.0047596e-28
2.015332e-28
2.0232783e-28
2.0278103e-28
2.0285681e-28
2.0258392e-28
2.0206249e-28
2.0144714e-28
2.0091032e-28
2.0059942e-28
2.0059894e-28
2.0090916e-28
2.014455e-28
2.0206088e-28
2.0258272e-28
2.0285656e-28
2.0278245e-28
2.0233174e-28
2.0153925e-28
2.0047724e-28
1.9925539e-28
1.9813953e-28
1.9861795e-28
1.9990116e-28
2.009177e-28
2.017558e-28
2.023904e-28
2.0274233e-28
2.0275664e-28
2.0244669e-28
2.0190305e-28
2.0127471e-28
2.0073107e-28
2.0041762e-28
2.0041817e-28
2.0073247e-28
2.0127668e-28
2.0190506e-28
2.0244806e-28
2.0275655e-28
2.0273923e-28
2.0238164e-28
2.0173585e-28
2.0087857e-28
1.9984151e-28
1.9858174e-28
1.5151338e-29
1.5233355e-29
1.5323699e-29
1.5403406e-29
1.5463086e-29
1.5496937e-29
1.5502288e-29
1.5481299e-29
1.544154e-29
1.539471e-29
1.5353887e-29
1.533025e-29
1.5330217e-29
1.53538e-29
1.5394587e-29
1.5441414e-29
1.5481203e-29
1.5502263e-29
1.5497032e-29
1.5463358e-29
1.540383e-29
1.5323749e-29
1.5231118e-29
1.5145773e-29
1.5181518e-29
1.5279289e-29
1.5356225e-29
1.5419407e-29
1.5467198e-29
1.549365e-29
1.549458e-29
1.5470957e-29
1.5429632e-29
1.5381894e-29
1.5340591e-29
1.5316782e-29
1.5316819e-29
1.5340693e-29
1.5382037e-29
1.542978e-29
1.5471063e-29
1.5494579e-29
1.5493433e-29
1.5466559e-29
1.5417941e-29
1.5353318e-29
1.5274848e-29
1.5178855e-29
1.0877712e-30
1.0936858e-30
1.100131e-30
1.1057845e-30
1.1100016e-30
1.1123814e-30
1.1127364e-30
1.1112191e-30
1.1083677e-30
1.1050153e-30
1.1020947e-30
1.1004041e-30
1.1004019e-30
1.1020885e-30
1.1050066e-30
1.1083586e-30
1.1112121e-30
1.1127343e-30
1.1123874e-30
1.1100196e-30
1.1058125e-30
1.1001317e-30
1.0935243e-30
1.0873793e-30
1.0898982e-30
1.0969072e-30
1.1023839e-30
1.1068648e-30
1.1102518e-30
1.1121237e-30
1.1121799e-30
1.1104866e-30
1.1075313e-30
1.1041179e-30
1.1011199e-30
1.0994179e-30
1.0994205e-30
1.101127e-30
1.1041279e-30
1.1075418e-30
1.1104944e-30
1.1121803e-30
1.1121094e-30
1.1102082e-30
1.1067635e-30
1.1021808e-30
1.0965959e-30
1.0897133e-30
7.3087401e-32
7.3486829e-32
7.3917358e-32
7.4292753e-32
7.4571764e-32
7.472846e-32
7.4750488e-32
7.4647911e-32
7.4456524e-32
7.4231838e-32
7.40335e-32
7.3920301e-32
7.3920153e-32
7.4033091e-32
7.4231261e-32
7.4455918e-32
7.4647436e-32
7.4750322e-32
7.4728812e-32
7.4572871e-32
7.4294489e-32
7.3917234e-32
7.3475939e-32
7.3061468e-32
7.3228074e-32
7.3698559e-32
7.406344e-32
7.4360953e-32
7.4585729e-32
7.4709826e-32
7.4712962e-32
7.4599383e-32
7.4401417e-32
7.4163102e-32
7.3582084e-32
7.3468871e-32
7.346904e-32
7.3582553e-32
7.4163771e-32
7.440212e-32
7.4599911e-32
7.4713025e-32
7.4708941e-32
7.4582948e-32
7.4354393e-32
7.4050163e-32
7.36781e-32
7.3216022e-32
4.5887665e-33
4.6139791e-33
4.6408546e-33
4.664147e-33
4.6813985e-33
4.6910439e-33
4.6923202e-33
4.6858466e-33
4.6738413e-33
4.6592098e-33
4.6223674e-33
4.6153278e-33
4.6153187e-33
4.6223421e-33
4.6591739e-33
4.6738035e-33
4.6858166e-33
4.6923087e-33
4.691063e-33
4.6814622e-33
4.6642473e-33
4.6408376e-33
4.6132935e-33
4.5871571e-33
4.59748e-33
4.6269959e-33
4.6497066e-33
4.6681646e-33
4.6821079e-33
4.6897999e-33
4.6899612e-33
4.682839e-33
4.6698854e-33
4.630511e-33
4.6183968e-33
4.6113219e-33
4.6113324e-33
4.6184274e-33
4.6305524e-33
4.6699293e-33
4.6828726e-33
4.689967e-33
4.689749e-33
4.6819424e-33
4.6677681e-33
4.6488953e-33
4.6257382e-33
4.5967439e-33
2.6898757e-34
2.7047368e-34
2.7204007e-34
2.7338933e-34
2.7438533e-34
2.7493989e-34
2.750089e-34
2.7462756e-34
2.7389457e-34
2.7157197e-34
2.7087005e-34
2.7045912e-34
2.7045859e-34
2.7086865e-34
2.7156989e-34
2.7389237e-34
2.746258e-34
2.7500816e-34
2.7494084e-34
2.7438873e-34
2.7339473e-34
2.7203858e-34
2.7043339e-34
2.6889398e-34
2.6949252e-34
2.7122148e-34
2.7254088e-34
2.7360999e-34
2.7441773e-34
2.7486311e-34
2.7487056e-34
2.7443151e-34
2.721959e-34
2.7135022e-34
2.7065461e-34
2.7024189e-34
2.702425e-34
2.7065639e-34
2.713527e-34
2.7219845e-34
2.744335e-34
2.74871e-34
2.7486039e-34
2.7440855e-34
2.7358763e-34
2.7249459e-34
2.7114924e-34
2.6945046e-34
1.4713639e-35
1.4795389e-35
1.4880579e-35
1.4953509e-35
1.5007174e-35
1.5036941e-35
1.5040414e-35
1.5018352e-35
1.4895629e-35
1.485023e-35
1.4812581e-35
1.4790202e-35
1.4790174e-35
1.4812506e-35
1.4850121e-35
1.489551e-35
1.5018256e-35
1.5040371e-35
1.5036984e-35
1.5007343e-35
1.4953779e-35
1.4880472e-35
1.4793179e-35
1.4708543e-35
1.4740995e-35
1.4835507e-35
1.4907016e-35
1.4964802e-35
1.5008479e-35
1.5032556e-35
1.5032854e-35
1.5007387e-35
1.4884416e-35
1.4838984e-35
1.4801112e-35
1.4778646e-35
1.4778679e-35
1.4801209e-35
1.4839119e-35
1.4884559e-35
1.5007493e-35
1.5032884e-35
1.5032421e-35
1.5008004e-35
1.4963626e-35
1.4904553e-35
1.4831633e-35
1.473875e-35
7.5078819e-37
7.5498338e-37
7.5930518e-37
7.629823e-37
7.6568005e-37
7.6717128e-37
7.6733384e-37
7.6613485e-37
7.5982786e-37
7.5754977e-37
7.5563667e-37
7.5449978e-37
7.5449832e-37
7.5563283e-37
7.5754426e-37
7.59822e-37
7.6612971e-37
7.6733148e-37
7.6717309e-37
7.6568783e-37
7.6299478e-37
7.5929848e-37
7.5487011e-37
7.5052835e-37
7.5217275e-37
7.5699227e-37
7.606069e-37
7.635206e-37
7.6572442e-37
7.6693901e-37
7.6689656e-37
7.6128213e-37
7.5929682e-37
7.5699009e-37
7.5506658e-37
7.5392573e-37
7.5392742e-37
7.5507149e-37
7.5699695e-37
7.5930428e-37
7.6128758e-37
7.6689831e-37
7.6693274e-37
7.6570156e-37
7.6346298e-37
7.6048463e-37
7.5679842e-37
7.5206096e-37
3.5741118e-38
3.5941911e-38
3.6146383e-38
3.6319293e-38
3.6445804e-38
3.6515507e-38
3.6520286e-38
3.6253061e-38
3.6161186e-38
3.6053218e-38
3.5962547e-38
3.590868e-38
3.5908611e-38
3.5962366e-38
3.6052958e-38
3.6160916e-38
3.6252817e-38
3.6520168e-38
3.6515575e-38
3.6446136e-38
3.6319828e-38
3.6146003e-38
3.5936486e-38
3.5728716e-38
3.5806558e-38
3.6035771e-38
3.6206147e-38
3.6343186e-38
3.6446935e-38
3.6504094e-38
3.6498818e-38
3.6229202e-38
3.6136462e-38
3.602722e-38
3.5936103e-38
3.5882067e-38
3.5882147e-38
3.5936335e-38
3.6027545e-38
3.6136816e-38
3.6229472e-38
3.6498904e-38
3.6503824e-38
3.6445909e-38
3.6340555e-38
3.6200492e-38
3.6026726e-38
3.580137e-38
1.5977964e-39
1.6067587e-39
1.6157797e-39
1.6233625e-39
1.6288967e-39
1.6319363e-39
1.6319983e-39
1.6200093e-39
1.6159989e-39
1.6112266e-39
1.6072189e-39
1.6048384e-39
1.6048354e-39
1.6072109e-39
1.611215e-39
1.6159869e-39
1.6199988e-39
1.6319924e-39
1.6319386e-39
1.6289098e-39
1.6233836e-39
1.6157601e-39
1.6065159e-39
1.5972425e-39
1.6006838e-39
1.6108496e-39
1.618338e-39
1.6243498e-39
1.6289061e-39
1.6313216e-39
1.6215488e-39
1.6190225e-39
1.614925e-39
1.6100997e-39
1.6060742e-39
1.6036871e-39
1.6036906e-39
1.6060845e-39
1.6101141e-39
1.6149407e-39
1.6190348e-39
1.621553e-39
1.6313109e-39
1.6288633e-39
1.6242379e-39
1.6180943e-39
1.6104563e-39
1.6004595e-39
7.7726802e-41
7.8099816e-41
7.8470918e-41
7.8781022e-41
7.900683e-41
7.9126903e-41
7.872542e-41
7.8627691e-41
7.8462223e-41
7.8265498e-41
7.8100298e-41
7.8002188e-41
7.8002062e-41
7.8099968e-41
7.8265024e-41
7.8461731e-41
7.8627268e-41
7.8725172e-41
7.912697e-41
7.9007311e-41
7.878179e-41
7.8469984e-41
7.8089655e-41
7.7703652e-41
7.784569e-41
7.8266111e-41
7.8572996e-41
7.8818993e-41
7.9005665e-41
7.9101026e-41
7.8689568e-41
7.8587552e-41
7.8418713e-41
7.8219928e-41
7.8054063e-41
7.7955707e-41
7.7955852e-41
7.8054486e-41
7.822052e-41
7.8419361e-41
7.8588067e-41
7.8689771e-41
7.9100615e-41
7.9003997e-41
7.8814563e-41
7.8563216e-41
7.8250173e-41
7.7836678e-41
1.4633074e-41
1.4647551e-41
1.4661787e-41
1.4673615e-41
1.4682211e-41
1.468664e-41
1.4670842e-41
1.4667147e-41
1.466078e-41
1.4653216e-41
1.4646864e-41
1.4643092e-41
1.4643087e-41
1.4646851e-41
1.4653197e-41
1.4660761e-41
1.466713e-41
1.4670832e-41
1.4686642e-41
1.4682227e-41
1.4673641e-41
1.4661746e-41
1.4647154e-41
1.4632169e-41
1.4637642e-41
1.4653856e-41
1.4665584e-41
1.4674975e-41
1.468211e-41
1.468559e-41
1.4669545e-41
1.4665624e-41
1.4659135e-41
1.4651496e-41
1.4645121e-41
1.4641341e-41
1.4641346e-41
1.4645137e-41
1.4651519e-41
1.465916e-41
1.4665644e-41
1.4669554e-41
1.4685575e-41
1.4682049e-41
1.4674811e-41
1.4665219e-41
1.4653254e-41
1.4637305e-41
1.2191211e-41
1.2191735e-41
1.2192244e-41
1.2192665e-41
1.2192971e-41
1.2193122e-41
1.2192546e-41
1.2192413e-41
1.2192184e-41
1.2191913e-41
1.2191685e-41
1.219155e-41
1.219155e-41
1.2191685e-41
1.2191912e-41
1.2192184e-41
1.2192412e-41
1.2192546e-41
1.2193122e-41
1.2192971e-41
1.2192666e-41
1.2192243e-41
1.2191721e-41
1.2191178e-41
1.2191375e-41
1.2191958e-41
1.2192376e-41
1.2192711e-41
1.2192961e-41
1.2192501e-41
1.21925e-41
1.2192359e-41
1.2192126e-41
1.2191852e-41
1.2191624e-41
1.2191488e-41
1.2191488e-41
1.2191624e-41
1.2191853e-41
1.2192127e-41
1.219236e-41
1.21925e-41
1.2192501e-41
1.2192959e-41
1.2192705e-41
1.2192363e-41
1.2191937e-41
1.2191363e-41
1.2103065e-41
1.2103083e-41
1.21031e-41
1.2103114e-41
1.2103124e-41
1.2103109e-41
1.2103109e-41
1.2103105e-41
1.2103097e-41
1.2103088e-41
1.210308e-41
1.2103076e-41
1.2103076e-41
1.210308e-41
1.2103088e-41
1.2103097e-41
1.2103105e-41
1.2103109e-41
1.2103109e-41
1.2103124e-41
1.2103114e-41
1.21031e-41
1.2103082e-41
1.2103064e-41
1.2103071e-41
1.210309e-41
1.2103104e-41
1.2103115e-41
1.2103123e-41
1.2103108e-41
1.2103108e-41
1.2103103e-41
1.2103095e-41
1.2103086e-41
1.2103078e-41
1.2103074e-41
1.2103074e-41
1.2103078e-41
1.2103086e-41
1.2103095e-41
1.2103103e-41
1.2103108e-41
1.2103107e-41
1.2103123e-41
1.2103115e-41
1.2103104e-41
1.2103089e-41
1.210307e-41
1.2100096e-41
1.2100097e-41
1.2100097e-41
1.2100098e-41
1.2100098e-41
1.2100098e-41
1.2100098e-41
1.2100097e-41
1.2100097e-41
1.2100097e-41
1.2100097e-41
1.2100096e-41
1.2100096e-41
1.2100097e-41
1.2100097e-41
1.2100097e-41
1.2100097e-41
1.2100098e-41
1.2100098e-41
1.2100098e-41
1.2100098e-41
1.2100097e-41
1.2100097e-41
1.2100096e-41
1.2100096e-41
1.2100097e-41
1.2100097e-41
1.2100098e-41
1.2100098e-41
1.2100097e-41
1.2100097e-41
1.2100097e-41
1.2100097e-41
1.2100097e-41
1.2100097e-41
1.2100096e-41
1.2100096e-41
1.2100097e-41
1.2100097e-41
1.2100097e-41
1.2100097e-41
1.2100097e-41
1.2100097e-41
1.2100098e-41
1.2100098e-41
1.2100097e-41
1.2100097e-41
1.2100096e-41
1.2100003e-41
1.2100003e-41
1.2100003e-41
1.2100003e-41
1.2100003e-41
1.2100003e-41
1.2100003e-41
1.2100003e-41
1.2100003e-41
1.2100003e-41
1.2100003e-41
1.2100003e-41
1.2100003e-41
1.2100003e-41
1.2100003e-41
1.2100003e-41
1.2100003e-41
1.2100003e-41
1.2100003e-41
1.2100003e-41
1.2100003e-41
1.2100003e-41
1.2100003e-41
1.2100003e-41
1.2100003e-41
1.2100003e-41
1.2100003e-41
1.2100003e-41
1.2100003e-41
1.2100003e-41
1.2100003e-41
1.2100003e-41
1.2100003e-41
1.2100003e-41
1.2100003e-41
1.2100003e-41
1.2100003e-41
1.2100003e-41
1.2100003e-41
1.2100003e-41
1.2100003e-41
1.2100003e-41
1.2100003e-41
1.2100003e-41
1.2100003e-41
1.2100003e-41
1.2100003e-41
1.2100003e-41
1.21e-41
1.21e-41
1.21e-41
1.21e-41
1.21e-41
1.21e-41
1.21e-41
1.21e-41
1.21e-41
1.21e-41
1.21e-41
1.21e-41
1.21e-41
1.21e-41
1.21e-41
1.21e-41
1.21e-41
1.21e-41
1.21e-41
1.21e-41
1.21e-41
1.21e-41
1.21e-41
1.21e-41
1.21e-41
1.21e-41
1.21e-41
1.21e-41
1.21e-41
1.21e-41
1.21e-41
1.21e-41
1.21e-41
1.21e-41
1.21e-41
1.21e-41
1.21e-41
1.21e-41
1.21e-41
1.21e-41
1.21e-41
1.21e-41
1.21e-41
1.21e-41
1.21e-41
1.21e-41
1.21e-41
1.21e-41
1.21e-41
1.21e-41
1.21e-41
1.21e-41
1.21e-41
1.21e-41
1.21e-41
1.21e-41
1.21e-41
1.21e-41
1.21e-41
1.21e-41
1.21e-41
1.21e-41
1.21e-41
1.21e-41
1.21e-41
1.21e-41
1.21e-41
1.21e-41
1.21e-41
1.21e-41
1.21e-41
1.21e-41
1.21e-41
1.21e-41
1.21e-41
1.21e-41
1.21e-41
1.21e-41
1.21e-41
1.21e-41
1.21e-41
1.21e-41
1.21e-41
1.21e-41
1.21e-41
1.21e-41
1.21e-41
1.21e-41
1.21e-41
1.21e-41
1.21e-41
1.21e-41
1.21e-41
1.21e-41
1.21e-41
1.21e-41
1.21e-41
1.21e-41
1.21e-41
1.21e-41
1.21e-41
1.21e-41
1.21e-41
1.21e-41
1.21e-41
1.21e-41
1.21e-41
1.21e-41
1.21e-41
1.21e-41
1.21e-41
1.21e-41
1.21e-41
1.21e-41
1.21e-41
1.21e-41
1.21e-41
1.21e-41
1.21e-41
1.21e-41
1.21e-41
1.21e-41
1.21e-41
1.21e-41
1.21e-41
1.21e-41
1.21e-41
1.21e-41
1.21e-41
1.21e-41
1.21e-41
1.21e-41
1.21e-41
1.21e-41
1.21e-41
1.21e-41
1.21e-41
1.21e-41
1.21e-41
1.21e-41
1.21e-41
1.21e-41
1.21e-41
1.21e-41
1.21e-41
1.21e-41
1.21e-41
1.21e-41
1.21e-41
1.21e-41
1.21e-41
1.21e-41
1.21e-41
1.21e-41
1.21e-41
1.21e-41
1.21e-41
1.21e-41
1.21e-41
1.21e-41
1.21e-41
1.21e-41
1.21e-41
1.21e-41
1.21e-41
1.21e-41
1.21e-41
1.21e-41
1.21e-41
1.21e-41
1.21e-41
1.21e-41
1.21e-41
1.21e-41
1.21e-41
1.21e-41
1.21e-41
1.21e-41
1.21e-41
1.21e-41
1.21e-41
1.21e-41
1.21e-41
1.21e-41
1.21e-41
1.21e-41
1.21e-41
1.21e-41
1.21e-41
1.21e-41
1.21e-41
1.21e-41
1.21e-41
1.21e-41
1.21e-41
1.21e-41
1.21e-41
1.21e-41
1.21e-41
1.21e-41