/*--------------------------------*- C++ -*----------------------------------*\
| =========                 |                                                 |
| \\      /  F ield         | OpenFOAM: The Open Source CFD Toolbox           |
|  \\    /   O peration     | Version:  v1912                                 |
|   \\  /    A nd           | Website:  www.openfoam.com                      |
|    \\/     M anipulation  |                                                 |
\*---------------------------------------------------------------------------*/
FoamFile
{
    version     2.0;
    format      ascii;
    class       volScalarField;
    location    "2";
    object      Srr;
}
// * * * * * * * * * * * * * * * * * * * * * * * * * * * * * * * * * * * * * //

dimensions      [1 -3 -1 0 0 0 0];


internalField   nonuniform List<scalar> 
255504
(
1.0511334e-28
1.0490818e-28
1.0512178e-28
1.0559635e-28
1.0595466e-28
1.062073e-28
1.0636686e-28
1.0644861e-28
1.0647217e-28
1.0646053e-28
1.0643675e-28
1.0641961e-28
1.0641969e-28
1.0643703e-28
1.0646116e-28
1.0647342e-28
1.0645084e-28
1.063705e-28
1.0621279e-28
1.0596241e-28
1.0560661e-28
1.0513457e-28
1.0492607e-28
1.0513123e-28
1.0537254e-28
1.0562613e-28
1.0587174e-28
1.060914e-28
1.0626937e-28
1.0639429e-28
1.0646203e-28
1.0647733e-28
1.0645331e-28
1.0640891e-28
1.0636458e-28
1.0633748e-28
1.0633736e-28
1.0636417e-28
1.0640804e-28
1.0645172e-28
1.0647465e-28
1.0645785e-28
1.0638813e-28
1.0626083e-28
1.0608017e-28
1.0585764e-28
1.056091e-28
1.0535248e-28
1.675572e-28
1.6722444e-28
1.6781725e-28
1.6857169e-28
1.6911198e-28
1.694863e-28
1.6971194e-28
1.6980909e-28
1.6980948e-28
1.6975433e-28
1.6968684e-28
1.6964292e-28
1.6964295e-28
1.6968699e-28
1.6975486e-28
1.6981084e-28
1.6981188e-28
1.6971693e-28
1.6949432e-28
1.6912384e-28
1.6858794e-28
1.6783798e-28
1.6725158e-28
1.6758674e-28
1.6800182e-28
1.6843105e-28
1.6884525e-28
1.6921648e-28
1.6951586e-28
1.6972053e-28
1.6982089e-28
1.6982481e-28
1.6975714e-28
1.6965457e-28
1.6955721e-28
1.6949885e-28
1.6949876e-28
1.6955682e-28
1.6965364e-28
1.6975521e-28
1.6982126e-28
1.6981497e-28
1.6971142e-28
1.6950281e-28
1.6919893e-28
1.6882298e-28
1.6840427e-28
1.6797105e-28
3.1128214e-28
3.1130347e-28
3.125354e-28
3.1365088e-28
3.1455517e-28
3.1520051e-28
3.1557075e-28
3.1568835e-28
3.1561408e-28
3.1543563e-28
3.1524806e-28
3.1513139e-28
3.1513125e-28
3.1524779e-28
3.1543569e-28
3.1561531e-28
3.1569195e-28
3.1557827e-28
3.1521374e-28
3.1457593e-28
3.1368067e-28
3.1257491e-28
3.1134996e-28
3.1133639e-28
3.1219246e-28
3.1302247e-28
3.1382659e-28
3.1455532e-28
3.1514331e-28
3.1553532e-28
3.157059e-28
3.1566986e-28
3.1548154e-28
3.1522311e-28
3.1498513e-28
3.1484427e-28
3.1484427e-28
3.1498495e-28
3.1522226e-28
3.1547915e-28
3.1566472e-28
3.1569647e-28
3.1551992e-28
3.1512027e-28
3.1452336e-28
3.1378524e-28
3.1297261e-28
3.1213676e-28
5.763657e-28
5.7675417e-28
5.7894271e-28
5.8094648e-28
5.8259701e-28
5.8376363e-28
5.843883e-28
5.845055e-28
5.8423889e-28
5.837744e-28
5.8331635e-28
5.8303766e-28
5.8303712e-28
5.8331498e-28
5.8377303e-28
5.8423906e-28
5.845095e-28
5.8439915e-28
5.8378494e-28
5.826327e-28
5.8100008e-28
5.7901585e-28
5.7684403e-28
5.7646945e-28
5.7792227e-28
5.7943717e-28
5.809643e-28
5.8237711e-28
5.8352173e-28
5.8426907e-28
5.8455693e-28
5.8441275e-28
5.8395166e-28
5.8335104e-28
5.8280758e-28
5.8248831e-28
5.8248861e-28
5.8280815e-28
5.8335091e-28
5.8394921e-28
5.8440569e-28
5.8454228e-28
5.8424336e-28
5.8348143e-28
5.8231916e-28
5.8088719e-28
5.7934248e-28
5.7781616e-28
1.0029479e-27
1.0037893e-27
1.0076328e-27
1.0111729e-27
1.014088e-27
1.0161098e-27
1.0171108e-27
1.0171503e-27
1.0164679e-27
1.0154305e-27
1.0144434e-27
1.0138508e-27
1.0138495e-27
1.0144398e-27
1.0154259e-27
1.0164651e-27
1.0171531e-27
1.0171247e-27
1.0161413e-27
1.0141449e-27
1.0112631e-27
1.0077615e-27
1.0039541e-27
1.0031397e-27
1.0055109e-27
1.0081215e-27
1.0108493e-27
1.0134203e-27
1.0155104e-27
1.0168492e-27
1.0173027e-27
1.0169189e-27
1.0159234e-27
1.014668e-27
1.0135453e-27
1.012889e-27
1.01289e-27
1.0135477e-27
1.01467e-27
1.0159221e-27
1.0169106e-27
1.0172819e-27
1.0168094e-27
1.0154446e-27
1.0133217e-27
1.0107136e-27
1.0079504e-27
1.0053165e-27
1.5827887e-27
1.5843116e-27
1.5904858e-27
1.5962144e-27
1.6009214e-27
1.6041201e-27
1.6055737e-27
1.6053786e-27
1.603955e-27
1.6019521e-27
1.6000909e-27
1.5989838e-27
1.5989812e-27
1.6000837e-27
1.6019422e-27
1.6039463e-27
1.6053774e-27
1.6055885e-27
1.6041614e-27
1.6010025e-27
1.5963509e-27
1.5906913e-27
1.5845876e-27
1.5831166e-27
1.5866625e-27
1.5907754e-27
1.5952147e-27
1.5994653e-27
1.6029286e-27
1.6051068e-27
1.6057493e-27
1.6049325e-27
1.6030528e-27
1.6007355e-27
1.5986803e-27
1.5974834e-27
1.5974857e-27
1.5986861e-27
1.6007418e-27
1.603055e-27
1.6049247e-27
1.6057232e-27
1.6050516e-27
1.6028318e-27
1.5993134e-27
1.594997e-27
1.5904913e-27
1.5863329e-27
2.1862393e-27
2.1886415e-27
2.1974144e-27
2.2056009e-27
2.2123053e-27
2.216769e-27
2.2186172e-27
2.2179903e-27
2.2155312e-27
2.2122406e-27
2.209233e-27
2.2074563e-27
2.2074524e-27
2.2092217e-27
2.2122237e-27
2.2155144e-27
2.2179821e-27
2.2186291e-27
2.2168149e-27
2.2124049e-27
2.2057807e-27
2.1977021e-27
2.1890506e-27
2.1867416e-27
2.1914336e-27
2.1971783e-27
2.2035609e-27
2.2097503e-27
2.2147983e-27
2.2179191e-27
2.2187119e-27
2.2172849e-27
2.2142452e-27
2.2105584e-27
2.207309e-27
2.2054214e-27
2.2054259e-27
2.2073199e-27
2.210571e-27
2.214253e-27
2.2172804e-27
2.218684e-27
2.2178524e-27
2.2146734e-27
2.2095439e-27
2.2032514e-27
2.1967578e-27
2.1909321e-27
2.5351348e-27
2.5384048e-27
2.549093e-27
2.5590869e-27
2.5672316e-27
2.5725439e-27
2.5745318e-27
2.5733698e-27
2.5698896e-27
2.5653928e-27
2.5613337e-27
2.5589486e-27
2.558944e-27
2.5613195e-27
2.5653702e-27
2.5698656e-27
2.573354e-27
2.574537e-27
2.572585e-27
2.5673318e-27
2.5592838e-27
2.5494314e-27
2.5389224e-27
2.5358082e-27
2.5411412e-27
2.5480487e-27
2.5559033e-27
2.5635876e-27
2.569852e-27
2.5736634e-27
2.5744868e-27
2.5724532e-27
2.5683484e-27
2.5634307e-27
2.559117e-27
2.5566157e-27
2.5566231e-27
2.5591338e-27
2.5634502e-27
2.5683623e-27
2.5724536e-27
2.5744622e-27
2.5735954e-27
2.5697156e-27
2.5633486e-27
2.5555266e-27
2.5475124e-27
2.5404771e-27
2.3634623e-27
2.3671108e-27
2.3776665e-27
2.3875029e-27
2.3954764e-27
2.4006022e-27
2.4023807e-27
2.4009859e-27
2.3972649e-27
2.3925458e-27
2.3883162e-27
2.3858386e-27
2.3858345e-27
2.3883025e-27
2.3925226e-27
2.3972398e-27
2.4009678e-27
2.4023803e-27
2.4006325e-27
2.3955587e-27
2.3876775e-27
2.3779846e-27
2.3676356e-27
2.364228e-27
2.369311e-27
2.3761265e-27
2.383923e-27
2.3915624e-27
2.3977783e-27
2.40152e-27
2.4022357e-27
2.4000535e-27
2.3957742e-27
2.3906823e-27
2.3862291e-27
2.3836489e-27
2.3836577e-27
2.3862485e-27
2.390705e-27
2.3957906e-27
2.4000571e-27
2.4022166e-27
2.4014614e-27
2.397655e-27
2.3913364e-27
2.3835535e-27
2.37558e-27
2.3686038e-27
1.7438267e-27
1.7478731e-27
1.7564534e-27
1.7642806e-27
1.7705709e-27
1.7745518e-27
1.775821e-27
1.7745199e-27
1.7713421e-27
1.767376e-27
1.7638444e-27
1.7617825e-27
1.76178e-27
1.7638347e-27
1.767357e-27
1.7713218e-27
1.7745041e-27
1.7758168e-27
1.7745673e-27
1.7706214e-27
1.7644019e-27
1.7566891e-27
1.7483102e-27
1.7449313e-27
1.749193e-27
1.7547877e-27
1.7610773e-27
1.7672059e-27
1.7721712e-27
1.7751275e-27
1.7756199e-27
1.7737497e-27
1.7701737e-27
1.7659442e-27
1.7622579e-27
1.7601222e-27
1.7601308e-27
1.7622764e-27
1.7659671e-27
1.7701899e-27
1.7737547e-27
1.7756072e-27
1.7750865e-27
1.7720825e-27
1.7670345e-27
1.7607851e-27
1.7543289e-27
1.7485078e-27
9.7272926e-28
9.7711257e-28
9.8215021e-28
9.868081e-28
9.9053623e-28
9.9286857e-28
9.9356558e-28
9.9271455e-28
9.9073685e-28
9.8829182e-28
9.8612413e-28
9.8486257e-28
9.8486135e-28
9.8612002e-28
9.8828044e-28
9.9072508e-28
9.9270484e-28
9.9356177e-28
9.928741e-28
9.9055999e-28
9.8687214e-28
9.8226103e-28
9.7713536e-28
9.7392906e-28
9.7723105e-28
9.8089009e-28
9.8473828e-28
9.884247e-28
9.9139029e-28
9.9314102e-28
9.9340211e-28
9.9223404e-28
9.9003744e-28
9.8744875e-28
9.8520139e-28
9.8389788e-28
9.8390301e-28
9.8521364e-28
9.8746638e-28
9.9004991e-28
9.9223813e-28
9.9339347e-28
9.931172e-28
9.9134103e-28
9.8832645e-28
9.8456426e-28
9.8058009e-28
9.7646816e-28
4.1744563e-28
4.1936308e-28
4.2159726e-28
4.2368646e-28
4.2535418e-28
4.2638878e-28
4.266841e-28
4.2628162e-28
4.2537251e-28
4.2425443e-28
4.2326522e-28
4.2269227e-28
4.2269136e-28
4.23265e-28
4.2424941e-28
4.2536781e-28
4.2627717e-28
4.2668207e-28
4.2639041e-28
4.253641e-28
4.2371417e-28
4.2163885e-28
4.1934828e-28
4.1707875e-28
4.190119e-28
4.2092059e-28
4.2270572e-28
4.2437543e-28
4.2570672e-28
4.2648702e-28
4.2659411e-28
4.2605485e-28
4.2505283e-28
4.2387434e-28
4.2285626e-28
4.2226425e-28
4.2226538e-28
4.2286108e-28
4.2388376e-28
4.2506023e-28
4.2605732e-28
4.2658789e-28
4.2647498e-28
4.2568545e-28
4.243334e-28
4.2263022e-28
4.2078412e-28
4.1877718e-28
1.45818e-28
1.4647934e-28
1.4727622e-28
1.480265e-28
1.4862364e-28
1.4899169e-28
1.4909292e-28
1.4894355e-28
1.4861241e-28
1.4820661e-28
1.4784746e-28
1.4764085e-28
1.4764002e-28
1.4784818e-28
1.4820478e-28
1.4861117e-28
1.4894191e-28
1.4909206e-28
1.4899231e-28
1.4862796e-28
1.4803693e-28
1.4728999e-28
1.4647237e-28
1.4570538e-28
1.4626272e-28
1.4700099e-28
1.4766041e-28
1.4826461e-28
1.4874216e-28
1.4902004e-28
1.4905573e-28
1.4885854e-28
1.4849556e-28
1.4806945e-28
1.4770279e-28
1.4748898e-28
1.4748858e-28
1.4770366e-28
1.4807261e-28
1.484989e-28
1.4885977e-28
1.4905222e-28
1.4901498e-28
1.4873475e-28
1.4825056e-28
1.4763498e-28
1.4695554e-28
1.4620444e-28
3.4177271e-29
3.4335258e-29
3.4527391e-29
3.470808e-29
3.4851179e-29
3.493893e-29
3.4962476e-29
3.4926087e-29
3.4846245e-29
3.4748638e-29
3.4662118e-29
3.4612603e-29
3.461225e-29
3.4662408e-29
3.4748174e-29
3.4846091e-29
3.4925722e-29
3.4962271e-29
3.4939179e-29
3.4852563e-29
3.4710814e-29
3.4530533e-29
3.4332709e-29
3.415341e-29
3.4272759e-29
3.4457849e-29
3.4618995e-29
3.4764342e-29
3.4878517e-29
3.4944547e-29
3.4952668e-29
3.4905006e-29
3.4817757e-29
3.4715558e-29
3.4627687e-29
3.4576362e-29
3.4576101e-29
3.4627651e-29
3.4716086e-29
3.4818673e-29
3.4905383e-29
3.4951614e-29
3.4943215e-29
3.487677e-29
3.4761152e-29
3.4613092e-29
3.444737e-29
3.4261684e-29
6.930319e-30
6.9631168e-30
7.0030567e-30
7.0405094e-30
7.0700226e-30
7.0880303e-30
7.0927328e-30
7.0850847e-30
7.0684873e-30
7.0482673e-30
7.0303168e-30
7.0200757e-30
7.0199714e-30
7.0303825e-30
7.0481604e-30
7.0684893e-30
7.0850197e-30
7.0926919e-30
7.0881087e-30
7.0703843e-30
7.0411054e-30
7.0036634e-30
6.9624737e-30
6.9258368e-30
6.9487196e-30
6.9880985e-30
7.0218753e-30
7.0519341e-30
7.0754423e-30
7.0889533e-30
7.0905397e-30
7.0806256e-30
7.0625421e-30
7.0414325e-30
7.0232512e-30
7.0126328e-30
7.01256e-30
7.0232052e-30
7.0414802e-30
7.0627545e-30
7.0807246e-30
7.0903182e-30
7.0886811e-30
7.0750964e-30
7.0513083e-30
7.0206689e-30
6.9859778e-30
6.9467616e-30
1.2429132e-30
1.2489345e-30
1.2562468e-30
1.2630788e-30
1.2684378e-30
1.2716898e-30
1.2725145e-30
1.2710937e-30
1.2680487e-30
1.2643547e-30
1.261074e-30
1.2592025e-30
1.2591804e-30
1.261084e-30
1.2643336e-30
1.2680542e-30
1.2710845e-30
1.2725085e-30
1.2717091e-30
1.2685134e-30
1.2631876e-30
1.2563462e-30
1.248804e-30
1.2421604e-30
1.2460987e-30
1.2534255e-30
1.2596436e-30
1.2651132e-30
1.2693774e-30
1.2718145e-30
1.2720852e-30
1.2702674e-30
1.266959e-30
1.263113e-30
1.2597905e-30
1.2578536e-30
1.2578404e-30
1.2597798e-30
1.2631127e-30
1.2670012e-30
1.2702883e-30
1.2720517e-30
1.2717695e-30
1.2693179e-30
1.2650025e-30
1.2594205e-30
1.253039e-30
1.2457761e-30
2.0004175e-31
2.0103215e-31
2.0222838e-31
2.0334151e-31
2.0421101e-31
2.0473535e-31
2.0486441e-31
2.0462785e-31
2.0412782e-31
2.0352366e-31
2.0298764e-31
2.0268113e-31
2.0267764e-31
2.0298874e-31
2.0352024e-31
2.0412912e-31
2.0462681e-31
2.0486398e-31
2.0473918e-31
2.0422377e-31
2.0335838e-31
2.0224243e-31
2.0100925e-31
1.9992786e-31
2.005407e-31
2.0175395e-31
2.0277484e-31
2.0366414e-31
2.0435541e-31
2.0474878e-31
2.0478967e-31
2.0449134e-31
2.0394961e-31
2.0332205e-31
2.027783e-31
2.0246226e-31
2.024605e-31
2.0277692e-31
2.0332128e-31
2.0395656e-31
2.0449474e-31
2.0478584e-31
2.0474234e-31
2.0434607e-31
2.0364587e-31
2.0273733e-31
2.0169018e-31
2.0049148e-31
2.9238294e-32
2.9385876e-32
2.9562877e-32
2.9726876e-32
2.9854475e-32
2.9930884e-32
2.9949118e-32
2.9913428e-32
2.9839053e-32
2.974949e-32
2.9670201e-32
2.9624701e-32
2.9624269e-32
2.9670293e-32
2.9749031e-32
2.9839224e-32
2.9913322e-32
2.9949159e-32
2.9931504e-32
2.9856254e-32
2.9729136e-32
2.9564633e-32
2.9382289e-32
2.9222623e-32
2.9309511e-32
2.9490757e-32
2.9642166e-32
2.9773011e-32
2.9874373e-32
2.9931882e-32
2.9937428e-32
2.9893052e-32
2.9812755e-32
2.9719909e-32
2.9639309e-32
2.9592604e-32
2.9592423e-32
2.9639208e-32
2.9719782e-32
2.9813686e-32
2.9893468e-32
2.9937049e-32
2.9931025e-32
2.9872999e-32
2.9770184e-32
2.9636438e-32
2.9481239e-32
2.9302623e-32
3.9145464e-33
3.9346335e-33
3.9585355e-33
3.9805846e-33
3.9976699e-33
4.0078286e-33
4.010171e-33
4.0052527e-33
3.9951438e-33
3.9830052e-33
3.9722884e-33
3.9661179e-33
3.966074e-33
3.9722941e-33
3.9829524e-33
3.9951565e-33
4.0052408e-33
4.0101873e-33
4.007911e-33
3.9978808e-33
3.980851e-33
3.9587345e-33
3.9341255e-33
3.9125671e-33
3.9238639e-33
3.9485292e-33
3.9690059e-33
3.986585e-33
4.0001513e-33
4.0078306e-33
4.008514e-33
4.0024797e-33
3.9916157e-33
3.9790542e-33
3.9681445e-33
3.9618361e-33
3.9618217e-33
3.9681429e-33
3.979043e-33
3.9917163e-33
4.0025187e-33
4.0084734e-33
4.0077215e-33
3.9999613e-33
3.9861811e-33
3.9682115e-33
3.9472412e-33
3.9229802e-33
4.8264487e-34
4.8515335e-34
4.8811605e-34
4.9083746e-34
4.9293564e-34
4.9417639e-34
4.944504e-34
4.9382844e-34
4.9256514e-34
4.9105232e-34
4.8972224e-34
4.8895348e-34
4.8895003e-34
4.8972154e-34
4.9104762e-34
4.9256458e-34
4.9382732e-34
4.9445363e-34
4.9418484e-34
4.9295635e-34
4.9086459e-34
4.8813734e-34
4.850885e-34
4.8241472e-34
4.8376565e-34
4.868426e-34
4.8938236e-34
4.9155178e-34
4.9321736e-34
4.9415904e-34
4.9423657e-34
4.9348229e-34
4.9213419e-34
4.9057072e-34
4.8921645e-34
4.8843233e-34
4.8843242e-34
4.8921635e-34
4.9057244e-34
4.921419e-34
4.9348594e-34
4.9423075e-34
4.9414542e-34
4.9319212e-34
4.9149715e-34
4.8928081e-34
4.8668282e-34
4.836617e-34
5.5205176e-35
5.549478e-35
5.5834475e-35
5.6145121e-35
5.6383322e-35
5.6523728e-35
5.6553095e-35
5.6480439e-35
5.6334172e-35
5.6159678e-35
5.6006924e-35
5.5918387e-35
5.5918095e-35
5.6006654e-35
5.6159342e-35
5.6333979e-35
5.6480406e-35
5.6553465e-35
5.6524438e-35
5.6385224e-35
5.6147723e-35
5.5836528e-35
5.5487274e-35
5.5180122e-35
5.5329949e-35
5.5684781e-35
5.5975928e-35
5.6223559e-35
5.6412764e-35
5.6519595e-35
5.6527576e-35
5.6440468e-35
5.6285619e-35
5.6105529e-35
5.5950207e-35
5.5859931e-35
5.5860278e-35
5.5950195e-35
5.6106371e-35
5.6286251e-35
5.644108e-35
5.6526946e-35
5.6517999e-35
5.6409777e-35
5.6216889e-35
5.5964089e-35
5.5666433e-35
5.5318483e-35
5.8890239e-36
5.9201329e-36
5.9563623e-36
5.9893276e-36
6.0144865e-36
6.0292777e-36
6.0321906e-36
6.0243048e-36
6.0085418e-36
5.989829e-36
5.9735026e-36
5.9640278e-36
5.9639874e-36
5.9734569e-36
5.9898071e-36
6.0085335e-36
6.0243221e-36
6.032225e-36
6.0293438e-36
6.0146772e-36
5.9895911e-36
5.9565289e-36
5.9193333e-36
5.8864436e-36
5.9019575e-36
5.9400135e-36
5.9710458e-36
5.9973328e-36
6.017342e-36
6.0286244e-36
6.0293585e-36
6.0200181e-36
6.0034333e-36
5.984151e-36
5.9675778e-36
5.9579163e-36
5.9579994e-36
5.9676017e-36
5.9843237e-36
6.0035293e-36
6.0201224e-36
6.029326e-36
6.0284499e-36
6.0170411e-36
5.9966053e-36
5.9697975e-36
5.9380623e-36
5.9007638e-36
5.8774898e-37
5.9087142e-37
5.9447884e-37
5.9774236e-37
6.0022409e-37
6.0167792e-37
6.0194743e-37
6.0114874e-37
5.9956358e-37
5.9769183e-37
5.9606196e-37
5.9511606e-37
5.9510939e-37
5.960563e-37
5.9768998e-37
5.9956631e-37
6.0115361e-37
6.0195125e-37
6.0168584e-37
6.0024497e-37
5.9777011e-37
5.9448936e-37
5.9079193e-37
5.8749745e-37
5.8900279e-37
5.928121e-37
5.9589999e-37
5.9850484e-37
6.0048152e-37
6.0159516e-37
6.0165601e-37
6.0072144e-37
5.9905955e-37
5.9713338e-37
5.9548041e-37
5.9451646e-37
5.9452945e-37
5.9548831e-37
5.9715795e-37
5.9907526e-37
6.0073433e-37
6.0165747e-37
6.0157736e-37
6.0045592e-37
5.9843281e-37
5.957805e-37
5.9262096e-37
5.8888657e-37
5.4966839e-38
5.5260348e-38
5.5596427e-38
5.5898533e-38
5.6127562e-38
5.6261088e-38
5.6284411e-38
5.6208719e-38
5.6059769e-38
5.5884778e-38
5.5732478e-38
5.5644143e-38
5.5643191e-38
5.5731895e-38
5.5884525e-38
5.6060462e-38
5.6209512e-38
5.6284892e-38
5.6262025e-38
5.6129791e-38
5.590125e-38
5.5596798e-38
5.5252892e-38
5.4943709e-38
5.5080843e-38
5.5437361e-38
5.5724876e-38
5.5966302e-38
5.614906e-38
5.6251975e-38
5.625665e-38
5.6169086e-38
5.6013195e-38
5.5833219e-38
5.5678776e-38
5.5588875e-38
5.5590445e-38
5.5680159e-38
5.5835956e-38
5.601519e-38
5.617024e-38
5.6257137e-38
5.6250326e-38
5.6147225e-38
5.5959753e-38
5.5714369e-38
5.5420149e-38
5.5070311e-38
4.8191633e-39
4.8450235e-39
4.8743465e-39
4.9005309e-39
4.9203171e-39
4.9317907e-39
4.9336768e-39
4.9269571e-39
4.9138683e-39
4.8985581e-39
4.8852233e-39
4.8774953e-39
4.8773843e-39
4.8851707e-39
4.8985193e-39
4.9139642e-39
4.927053e-39
4.9337309e-39
4.9318797e-39
4.9205305e-39
4.9007579e-39
4.8743244e-39
4.8443589e-39
4.8171634e-39
4.8289004e-39
4.8601256e-39
4.8851977e-39
4.9061402e-39
4.9219705e-39
4.9308767e-39
4.9312209e-39
4.9235269e-39
4.9098463e-39
4.894097e-39
4.880574e-39
4.8727211e-39
4.8728771e-39
4.8807436e-39
4.8943504e-39
4.9100422e-39
4.9236033e-39
4.9312797e-39
4.930743e-39
4.9218603e-39
4.9055915e-39
4.8843357e-39
4.8586945e-39
4.8280097e-39
2.4481309e-40
2.4638327e-40
2.4814079e-40
2.4970225e-40
2.5087811e-40
2.5155324e-40
2.5166155e-40
2.5125388e-40
2.5047203e-40
2.4955593e-40
2.4875735e-40
2.4829514e-40
2.4829073e-40
2.4875492e-40
2.4955283e-40
2.5047455e-40
2.5125655e-40
2.5166329e-40
2.5155664e-40
2.5088769e-40
2.4971246e-40
2.4813941e-40
2.4634122e-40
2.4469865e-40
2.4539609e-40
2.4727971e-40
2.4878125e-40
2.5002527e-40
2.5096713e-40
2.5149313e-40
2.5151277e-40
2.5105005e-40
2.5023487e-40
2.4929578e-40
2.4848688e-40
2.4801937e-40
2.4802477e-40
2.4849397e-40
2.4930488e-40
2.5024212e-40
2.5105242e-40
2.5151468e-40
2.5148741e-40
2.5095877e-40
2.4999487e-40
2.4872793e-40
2.4719516e-40
2.4534356e-40
1.3650835e-41
1.3730085e-41
1.381757e-41
1.389479e-41
1.3952649e-41
1.3985567e-41
1.3990667e-41
1.397022e-41
1.3931447e-41
1.3885928e-41
1.3846237e-41
1.3823266e-41
1.3823149e-41
1.384614e-41
1.3885777e-41
1.3931433e-41
1.3970225e-41
1.3990689e-41
1.398567e-41
1.3952992e-41
1.3895198e-41
1.381753e-41
1.3727921e-41
1.3645345e-41
1.3679795e-41
1.3774244e-41
1.3848805e-41
1.3910136e-41
1.3956546e-41
1.3982302e-41
1.3983187e-41
1.3960174e-41
1.3919877e-41
1.3873376e-41
1.383322e-41
1.3810047e-41
1.3810178e-41
1.3833426e-41
1.3873636e-41
1.3920091e-41
1.3960267e-41
1.3983227e-41
1.3982083e-41
1.3956038e-41
1.3908706e-41
1.3846088e-41
1.3770041e-41
1.367723e-41
8.7707176e-43
8.8194488e-43
8.872585e-43
8.9192007e-43
8.9539792e-43
8.9736259e-43
8.9765354e-43
8.9640004e-43
8.9404389e-43
8.9127673e-43
8.888654e-43
8.8746998e-43
8.874665e-43
8.8886016e-43
8.9126866e-43
8.9403832e-43
8.9639603e-43
8.976526e-43
8.9736729e-43
8.9541409e-43
8.9194248e-43
8.8725716e-43
8.8181145e-43
8.7674665e-43
8.7882032e-43
8.8459387e-43
8.8911037e-43
8.9280716e-43
8.9560222e-43
8.9714803e-43
8.9719432e-43
8.9579532e-43
8.9335366e-43
8.9053405e-43
8.8805917e-43
8.8665353e-43
8.8665733e-43
8.8806682e-43
8.9054438e-43
8.9336314e-43
8.9580131e-43
8.9719542e-43
8.9713638e-43
8.9556847e-43
8.9272359e-43
8.8894476e-43
8.8433931e-43
8.786681e-43
5.7043488e-44
5.7357065e-44
5.7695106e-44
5.7989876e-44
5.8208968e-44
5.8332052e-44
5.8349316e-44
5.8268724e-44
5.8118354e-44
5.7941873e-44
5.7786072e-44
5.7697158e-44
5.7697015e-44
5.778575e-44
5.79414e-44
5.8117906e-44
5.8268378e-44
5.8349198e-44
5.8332316e-44
5.8209858e-44
5.7991217e-44
5.7694975e-44
5.7348502e-44
5.7023091e-44
5.7153855e-44
5.7523182e-44
5.7809707e-44
5.804335e-44
5.8219895e-44
5.8317374e-44
5.8319841e-44
5.82306e-44
5.8075075e-44
5.7887854e-44
5.743164e-44
5.7342705e-44
5.7342864e-44
5.7432032e-44
5.7888409e-44
5.8075631e-44
5.8231007e-44
5.8319902e-44
5.8316687e-44
5.8217748e-44
5.8038202e-44
5.779931e-44
5.7507155e-44
5.7144395e-44
3.5502526e-45
3.5697882e-45
3.5906129e-45
3.6086616e-45
3.6220294e-45
3.629504e-45
3.6304924e-45
3.6254755e-45
3.6161715e-45
3.604833e-45
3.5762848e-45
3.5708296e-45
3.5708221e-45
3.5762652e-45
3.6048048e-45
3.6161425e-45
3.6254526e-45
3.6304837e-45
3.6295185e-45
3.622079e-45
3.6087389e-45
3.5905992e-45
3.5692567e-45
3.549005e-45
3.557003e-45
3.5798722e-45
3.5974704e-45
3.6117733e-45
3.6225784e-45
3.6285392e-45
3.6286643e-45
3.6231445e-45
3.613106e-45
3.5825953e-45
3.5732076e-45
3.5677248e-45
3.5677333e-45
3.5732315e-45
3.5826278e-45
3.61314e-45
3.6231705e-45
3.628669e-45
3.6284999e-45
3.6224507e-45
3.6114662e-45
3.5968421e-45
3.5788983e-45
3.5564327e-45
2.076458e-46
2.0879343e-46
2.1000305e-46
2.1104501e-46
2.1181416e-46
2.1224242e-46
2.122957e-46
2.1200121e-46
2.1143515e-46
2.0964153e-46
2.0909946e-46
2.0878213e-46
2.0878171e-46
2.0909839e-46
2.0963992e-46
2.1143345e-46
2.1199985e-46
2.1229514e-46
2.1224315e-46
2.1181679e-46
2.1104917e-46
2.100019e-46
2.0876231e-46
2.0757353e-46
2.0803573e-46
2.0937087e-46
2.1038977e-46
2.1121539e-46
2.1183917e-46
2.1218312e-46
2.1218887e-46
2.118498e-46
2.1012337e-46
2.0947028e-46
2.0893309e-46
2.0861436e-46
2.0861484e-46
2.0893447e-46
2.094722e-46
2.1012534e-46
2.1185134e-46
2.1218922e-46
2.1218102e-46
2.1183209e-46
2.1119812e-46
2.1035403e-46
2.0931509e-46
2.0800325e-46
1.1351973e-47
1.1415051e-47
1.1480783e-47
1.1537056e-47
1.1578463e-47
1.1601431e-47
1.1604111e-47
1.1587088e-47
1.1492396e-47
1.1457366e-47
1.1428316e-47
1.1411048e-47
1.1411026e-47
1.1428257e-47
1.1457282e-47
1.1492304e-47
1.1587014e-47
1.1604078e-47
1.1601465e-47
1.1578594e-47
1.1537264e-47
1.1480701e-47
1.1413345e-47
1.1348041e-47
1.1373081e-47
1.1446005e-47
1.1501182e-47
1.1545769e-47
1.157947e-47
1.1598048e-47
1.1598278e-47
1.1578627e-47
1.1483744e-47
1.1448688e-47
1.1419466e-47
1.1402131e-47
1.1402157e-47
1.1419541e-47
1.1448792e-47
1.1483854e-47
1.1578709e-47
1.1598301e-47
1.1597943e-47
1.1579104e-47
1.1544862e-47
1.1499281e-47
1.1443016e-47
1.1371349e-47
5.7916887e-49
5.8240521e-49
5.8573923e-49
5.8857591e-49
5.9065707e-49
5.9180747e-49
5.9193288e-49
5.9100792e-49
5.8614244e-49
5.8438502e-49
5.8290917e-49
5.8203213e-49
5.8203101e-49
5.8290621e-49
5.8438077e-49
5.8613792e-49
5.9100396e-49
5.9193106e-49
5.9180887e-49
5.9066307e-49
5.8858554e-49
5.8573406e-49
5.8231783e-49
5.7896842e-49
5.8023697e-49
5.8395495e-49
5.8674343e-49
5.8899117e-49
5.906913e-49
5.9162829e-49
5.9159554e-49
5.8726433e-49
5.8573278e-49
5.8395327e-49
5.8246939e-49
5.8158928e-49
5.8159059e-49
5.8247317e-49
5.8395856e-49
5.8573853e-49
5.8726853e-49
5.9159689e-49
5.9162345e-49
5.9067366e-49
5.8894673e-49
5.866491e-49
5.8380541e-49
5.8015073e-49
2.7561499e-50
2.7716392e-50
2.7874123e-50
2.8007507e-50
2.8105098e-50
2.8158868e-50
2.8162555e-50
2.7956415e-50
2.7885542e-50
2.7802255e-50
2.7732311e-50
2.7690757e-50
2.7690704e-50
2.7732171e-50
2.7802054e-50
2.7885334e-50
2.7956227e-50
2.8162464e-50
2.8158921e-50
2.8105355e-50
2.800792e-50
2.787383e-50
2.7712207e-50
2.7551932e-50
2.761198e-50
2.7788796e-50
2.7920226e-50
2.8025938e-50
2.8105971e-50
2.8150064e-50
2.8145994e-50
2.7938011e-50
2.786647e-50
2.77822e-50
2.7711912e-50
2.7670228e-50
2.767029e-50
2.7712091e-50
2.7782451e-50
2.7866743e-50
2.7938218e-50
2.8146061e-50
2.8149856e-50
2.810518e-50
2.8023909e-50
2.7915863e-50
2.7781819e-50
2.7607978e-50
1.2232046e-51
1.2301182e-51
1.237077e-51
1.2429263e-51
1.2471954e-51
1.2495401e-51
1.2495879e-51
1.2403396e-51
1.237246e-51
1.2335647e-51
1.2304731e-51
1.2286368e-51
1.2286345e-51
1.2304669e-51
1.2335558e-51
1.2372368e-51
1.2403315e-51
1.2495834e-51
1.2495419e-51
1.2472055e-51
1.2429426e-51
1.2370618e-51
1.2299309e-51
1.2227773e-51
1.225432e-51
1.2332739e-51
1.2390504e-51
1.2436879e-51
1.2472027e-51
1.249066e-51
1.2415272e-51
1.2395784e-51
1.2364176e-51
1.2326954e-51
1.2295901e-51
1.2277487e-51
1.2277514e-51
1.229598e-51
1.2327065e-51
1.2364297e-51
1.239588e-51
1.2415305e-51
1.2490577e-51
1.2471696e-51
1.2436016e-51
1.2388624e-51
1.2329705e-51
1.225259e-51
5.0624976e-53
5.0912718e-53
5.1198985e-53
5.1438199e-53
5.1612386e-53
5.170501e-53
5.1395308e-53
5.131992e-53
5.1192278e-53
5.1040524e-53
5.091309e-53
5.0837408e-53
5.0837311e-53
5.0912835e-53
5.1040159e-53
5.1191899e-53
5.1319593e-53
5.1395116e-53
5.1705063e-53
5.1612757e-53
5.1438791e-53
5.1198265e-53
5.090488e-53
5.0607118e-53
5.0716686e-53
5.1040998e-53
5.1277728e-53
5.1467489e-53
5.1611488e-53
5.1685049e-53
5.1367651e-53
5.1288956e-53
5.1158715e-53
5.1005372e-53
5.0877424e-53
5.0801552e-53
5.0801665e-53
5.087775e-53
5.1005829e-53
5.1159214e-53
5.1289354e-53
5.1367808e-53
5.1684732e-53
5.1610201e-53
5.1464073e-53
5.1270184e-53
5.1028703e-53
5.0709734e-53
1.9546298e-54
1.9657973e-54
1.9767788e-54
1.9859029e-54
1.9925332e-54
1.9959505e-54
1.9837633e-54
1.9809132e-54
1.9760014e-54
1.9701666e-54
1.965267e-54
1.9623574e-54
1.9623537e-54
1.9652572e-54
1.9701525e-54
1.9759868e-54
1.9809005e-54
1.983756e-54
1.9959514e-54
1.9925458e-54
1.9859227e-54
1.9767472e-54
1.9654907e-54
1.9539316e-54
1.9581533e-54
1.9706606e-54
1.9797079e-54
1.9869514e-54
1.9924556e-54
1.9951398e-54
1.9827634e-54
1.9797384e-54
1.9747327e-54
1.96884e-54
1.9639225e-54
1.9610065e-54
1.9610108e-54
1.9639351e-54
1.9688576e-54
1.9747519e-54
1.9797538e-54
1.9827703e-54
1.9951285e-54
1.992409e-54
1.9868254e-54
1.9794258e-54
1.9701965e-54
1.9578935e-54
7.0982894e-56
7.1387165e-56
7.1780101e-56
7.2104784e-56
7.2340296e-56
7.2457141e-56
7.20127e-56
7.1910134e-56
7.1733803e-56
7.1524474e-56
7.1348708e-56
7.1244337e-56
7.1244203e-56
7.1348357e-56
7.1523969e-56
7.1733279e-56
7.1909678e-56
7.2012442e-56
7.2457138e-56
7.2340689e-56
7.2105386e-56
7.1778824e-56
7.1375955e-56
7.0957368e-56
7.1109226e-56
7.1559146e-56
7.1881693e-56
7.2139708e-56
7.2332773e-56
7.1978334e-56
7.1977055e-56
7.1868553e-56
7.1689043e-56
7.1477746e-56
7.1301398e-56
7.1196816e-56
7.1196971e-56
7.1301848e-56
7.1478377e-56
7.1689735e-56
7.1869111e-56
7.1977328e-56
7.1977973e-56
7.2331198e-56
7.213538e-56
7.1871873e-56
7.1542826e-56
7.1100201e-56
2.987359e-57
3.0010138e-57
3.0141329e-57
3.0249159e-57
3.0326231e-57
3.0210427e-57
3.0213264e-57
3.0178819e-57
3.0119738e-57
3.004964e-57
2.9990785e-57
2.9955837e-57
2.9955792e-57
2.9990667e-57
3.0049471e-57
3.0119562e-57
3.0178666e-57
3.0213179e-57
3.0210418e-57
3.0326345e-57
3.0249326e-57
3.0140852e-57
3.0006307e-57
2.9864861e-57
2.9915867e-57
3.0066884e-57
3.0174195e-57
3.0259988e-57
3.0323274e-57
3.0201273e-57
3.0201407e-57
3.0165083e-57
3.0104995e-57
3.003427e-57
2.9975238e-57
2.9940226e-57
2.9940278e-57
2.9975389e-57
3.0034481e-57
3.0105227e-57
3.0165272e-57
3.0201503e-57
3.0201169e-57
3.0322774e-57
3.0258603e-57
3.0171008e-57
3.0061536e-57
2.9912954e-57
6.9717791e-58
6.9760841e-58
6.9801728e-58
6.9835165e-58
6.9858737e-58
6.9821385e-58
6.982238e-58
6.9811582e-58
6.9793097e-58
6.9771177e-58
6.9752773e-58
6.9741845e-58
6.9741831e-58
6.9752736e-58
6.9771124e-58
6.9793042e-58
6.9811534e-58
6.9822353e-58
6.9821382e-58
6.9858766e-58
6.9835207e-58
6.9801563e-58
6.9759617e-58
6.9715001e-58
6.9731001e-58
6.9778317e-58
6.9811648e-58
6.9838292e-58
6.9857686e-58
6.981867e-58
6.98187e-58
6.9807345e-58
6.9788562e-58
6.9766454e-58
6.9748e-58
6.9737054e-58
6.973707e-58
6.9748047e-58
6.976652e-58
6.9788634e-58
6.9807404e-58
6.9818731e-58
6.9818642e-58
6.9857539e-58
6.9837878e-58
6.9810685e-58
6.9776683e-58
6.9730127e-58
6.2517379e-58
6.2518646e-58
6.2519836e-58
6.2520805e-58
6.2521479e-58
6.2520359e-58
6.2520386e-58
6.252007e-58
6.251953e-58
6.2518889e-58
6.2518352e-58
6.2518032e-58
6.2518032e-58
6.251835e-58
6.2518888e-58
6.2519528e-58
6.2520069e-58
6.2520385e-58
6.2520359e-58
6.2521479e-58
6.2520806e-58
6.2519831e-58
6.2518609e-58
6.2517295e-58
6.2517764e-58
6.2519148e-58
6.2520116e-58
6.2520889e-58
6.2521442e-58
6.2520279e-58
6.252028e-58
6.2519948e-58
6.2519399e-58
6.2518754e-58
6.2518215e-58
6.2517895e-58
6.2517895e-58
6.2518216e-58
6.2518756e-58
6.2519401e-58
6.251995e-58
6.252028e-58
6.2520278e-58
6.2521438e-58
6.2520877e-58
6.2520088e-58
6.2519102e-58
6.251774e-58
6.2305953e-58
6.2305988e-58
6.2306021e-58
6.2306047e-58
6.2306065e-58
6.2306034e-58
6.2306034e-58
6.2306026e-58
6.2306011e-58
6.2305993e-58
6.2305979e-58
6.230597e-58
6.230597e-58
6.2305979e-58
6.2305993e-58
6.2306011e-58
6.2306026e-58
6.2306034e-58
6.2306034e-58
6.2306065e-58
6.2306047e-58
6.2306021e-58
6.2305987e-58
6.2305951e-58
6.2305964e-58
6.2306002e-58
6.2306028e-58
6.2306049e-58
6.2306023e-58
6.2306031e-58
6.2306031e-58
6.2306022e-58
6.2306007e-58
6.230599e-58
6.2305975e-58
6.2305966e-58
6.2305966e-58
6.2305975e-58
6.230599e-58
6.2306007e-58
6.2306022e-58
6.2306031e-58
6.2306031e-58
6.2306023e-58
6.2306049e-58
6.2306027e-58
6.2306001e-58
6.2305963e-58
6.2300152e-58
6.2300153e-58
6.2300154e-58
6.2300155e-58
6.2300154e-58
6.2300154e-58
6.2300154e-58
6.2300154e-58
6.2300154e-58
6.2300153e-58
6.2300153e-58
6.2300153e-58
6.2300153e-58
6.2300153e-58
6.2300153e-58
6.2300154e-58
6.2300154e-58
6.2300154e-58
6.2300154e-58
6.2300154e-58
6.2300155e-58
6.2300154e-58
6.2300153e-58
6.2300152e-58
6.2300153e-58
6.2300154e-58
6.2300154e-58
6.2300155e-58
6.2300154e-58
6.2300154e-58
6.2300154e-58
6.2300154e-58
6.2300154e-58
6.2300153e-58
6.2300153e-58
6.2300153e-58
6.2300153e-58
6.2300153e-58
6.2300153e-58
6.2300154e-58
6.2300154e-58
6.2300154e-58
6.2300154e-58
6.2300154e-58
6.2300155e-58
6.2300154e-58
6.2300154e-58
6.2300153e-58
6.2300004e-58
6.2300004e-58
6.2300004e-58
6.2300004e-58
6.2300004e-58
6.2300004e-58
6.2300004e-58
6.2300004e-58
6.2300004e-58
6.2300004e-58
6.2300004e-58
6.2300004e-58
6.2300004e-58
6.2300004e-58
6.2300004e-58
6.2300004e-58
6.2300004e-58
6.2300004e-58
6.2300004e-58
6.2300004e-58
6.2300004e-58
6.2300004e-58
6.2300004e-58
6.2300004e-58
6.2300004e-58
6.2300004e-58
6.2300004e-58
6.2300004e-58
6.2300004e-58
6.2300004e-58
6.2300004e-58
6.2300004e-58