/*--------------------------------*- C++ -*----------------------------------*\
| =========                 |                                                 |
| \\      /  F ield         | OpenFOAM: The Open Source CFD Toolbox           |
|  \\    /   O peration     | Version:  v1912                                 |
|   \\  /    A nd           | Website:  www.openfoam.com                      |
|    \\/     M anipulation  |                                                 |
\*---------------------------------------------------------------------------*/
FoamFile
{
    version     2.0;
    format      ascii;
    class       volScalarField;
    location    "2";
    object      varZ;
}
// * * * * * * * * * * * * * * * * * * * * * * * * * * * * * * * * * * * * * //

dimensions      [0 0 0 0 0 0 0];


internalField   nonuniform List<scalar> 
255504
(
1.8304515e-07
1.8268896e-07
1.8306831e-07
1.8390079e-07
1.8452772e-07
1.8496867e-07
1.8524606e-07
1.8538681e-07
1.8542547e-07
1.8540264e-07
1.8535907e-07
1.8532798e-07
1.8532807e-07
1.8535942e-07
1.854035e-07
1.854273e-07
1.8539026e-07
1.8525194e-07
1.8497782e-07
1.845409e-07
1.8391847e-07
1.8309054e-07
1.8272036e-07
1.8307678e-07
1.8349864e-07
1.8394314e-07
1.8437411e-07
1.8475966e-07
1.8507181e-07
1.8529047e-07
1.8540829e-07
1.8543363e-07
1.8538972e-07
1.8531005e-07
1.8523084e-07
1.8518247e-07
1.8518221e-07
1.8522996e-07
1.8530829e-07
1.8538662e-07
1.8542853e-07
1.8540042e-07
1.8527899e-07
1.8505603e-07
1.8473909e-07
1.8434853e-07
1.8391255e-07
1.8346293e-07
2.9777504e-07
2.971847e-07
2.9825362e-07
2.996006e-07
3.0056342e-07
3.0122957e-07
3.0162991e-07
3.0180042e-07
3.0179793e-07
3.016964e-07
3.0157345e-07
3.0149365e-07
3.0149361e-07
3.0157346e-07
3.0169685e-07
3.017996e-07
3.0180446e-07
3.0163781e-07
3.0124296e-07
3.0058381e-07
2.9962903e-07
2.9829027e-07
2.9723321e-07
2.978283e-07
2.9856905e-07
2.9933631e-07
3.0007717e-07
3.0074116e-07
3.0127631e-07
3.0164152e-07
3.0181961e-07
3.0182474e-07
3.0170157e-07
3.0151604e-07
3.0134023e-07
3.0123489e-07
3.0123462e-07
3.013393e-07
3.0151403e-07
3.0169768e-07
3.0181784e-07
3.0180824e-07
3.0162417e-07
3.0125164e-07
3.0070829e-07
3.0003589e-07
2.9928717e-07
2.985131e-07
5.6760231e-07
5.6765226e-07
5.6990239e-07
5.7193716e-07
5.7358645e-07
5.7476318e-07
5.7543757e-07
5.756506e-07
5.7551332e-07
5.751859e-07
5.7484215e-07
5.7462837e-07
5.7462794e-07
5.7484106e-07
5.7518485e-07
5.7551378e-07
5.7565499e-07
5.7544901e-07
5.7478524e-07
5.7362267e-07
5.7199035e-07
5.6997384e-07
5.6773722e-07
5.6770254e-07
5.6926512e-07
5.7078211e-07
5.7225166e-07
5.7358266e-07
5.7465579e-07
5.7537049e-07
5.7568067e-07
5.7561369e-07
5.752688e-07
5.7479606e-07
5.7436089e-07
5.741033e-07
5.7410314e-07
5.7436014e-07
5.7479391e-07
5.7526372e-07
5.7560339e-07
5.7566211e-07
5.7534034e-07
5.7461108e-07
5.7352128e-07
5.7217308e-07
5.706883e-07
5.6916121e-07
1.079072e-06
1.0797966e-06
1.0838757e-06
1.087607e-06
1.0906797e-06
1.0928518e-06
1.0940163e-06
1.0942381e-06
1.093747e-06
1.0928878e-06
1.0920397e-06
1.0915234e-06
1.091522e-06
1.0920359e-06
1.0928827e-06
1.0937433e-06
1.0942407e-06
1.0940316e-06
1.0928872e-06
1.0907429e-06
1.0877047e-06
1.084011e-06
1.0799647e-06
1.0792684e-06
1.0819832e-06
1.0848094e-06
1.0876532e-06
1.0902801e-06
1.0924059e-06
1.0937931e-06
1.0943278e-06
1.094062e-06
1.0932089e-06
1.092097e-06
1.0910908e-06
1.0904996e-06
1.0904999e-06
1.0910911e-06
1.0920957e-06
1.0932031e-06
1.0940474e-06
1.0942983e-06
1.0937415e-06
1.0923258e-06
1.0901662e-06
1.0875034e-06
1.0846272e-06
1.0817806e-06
1.9258902e-06
1.9274718e-06
1.934744e-06
1.9414336e-06
1.9469389e-06
1.9507578e-06
1.9526544e-06
1.9527429e-06
1.9514746e-06
1.949537e-06
1.9476911e-06
1.9465822e-06
1.946579e-06
1.9476818e-06
1.9495232e-06
1.9514611e-06
1.9527385e-06
1.9526712e-06
1.9508093e-06
1.9470406e-06
1.941601e-06
1.9349868e-06
1.9277865e-06
1.9262609e-06
1.9307715e-06
1.9357164e-06
1.9408654e-06
1.9457066e-06
1.9496364e-06
1.9521523e-06
1.9530074e-06
1.9522937e-06
1.9504332e-06
1.948085e-06
1.9459846e-06
1.9447567e-06
1.9447584e-06
1.9459883e-06
1.9480874e-06
1.950429e-06
1.9522756e-06
1.9529645e-06
1.9520708e-06
1.9495031e-06
1.9455093e-06
1.9405971e-06
1.9353811e-06
1.930393e-06
3.1067271e-06
3.1096168e-06
3.1214074e-06
3.1323257e-06
3.1412874e-06
3.1473768e-06
3.1501538e-06
3.1498086e-06
3.1471377e-06
3.143367e-06
3.1398592e-06
3.1377722e-06
3.1377665e-06
3.1398418e-06
3.1433387e-06
3.1471065e-06
3.1497891e-06
3.1501659e-06
3.1474419e-06
3.1414328e-06
3.132583e-06
3.1218018e-06
3.1101532e-06
3.1073715e-06
3.1141866e-06
3.1220452e-06
3.1304893e-06
3.1385505e-06
3.1451067e-06
3.1492275e-06
3.1504471e-06
3.148914e-06
3.1453741e-06
3.141006e-06
3.1371318e-06
3.1348756e-06
3.1348809e-06
3.1371434e-06
3.1410168e-06
3.1453752e-06
3.1488953e-06
3.150392e-06
3.1491125e-06
3.1449077e-06
3.138242e-06
3.1300529e-06
3.121481e-06
3.1135352e-06
4.37038e-06
4.3749985e-06
4.3918876e-06
4.4076083e-06
4.4204649e-06
4.429019e-06
4.4325706e-06
4.4313999e-06
4.4267344e-06
4.4204779e-06
4.4147575e-06
4.4113789e-06
4.4113711e-06
4.4147315e-06
4.420432e-06
4.4266804e-06
4.4313588e-06
4.4325701e-06
4.4290868e-06
4.4206408e-06
4.4079502e-06
4.3924475e-06
4.3758054e-06
4.3713823e-06
4.3804635e-06
4.39152e-06
4.4037472e-06
4.4155678e-06
4.4251899e-06
4.431134e-06
4.4326465e-06
4.4299388e-06
4.4241605e-06
4.4171466e-06
4.4109655e-06
4.407375e-06
4.4073874e-06
4.4109912e-06
4.4171716e-06
4.4241701e-06
4.4299226e-06
4.4325849e-06
4.430993e-06
4.424931e-06
4.4151439e-06
4.4031203e-06
4.3906764e-06
4.3794593e-06
5.1732249e-06
5.1797061e-06
5.2007024e-06
5.2202872e-06
5.2362301e-06
5.2466206e-06
5.2505135e-06
5.2482626e-06
5.241489e-06
5.2327256e-06
5.2248189e-06
5.2201776e-06
5.2201706e-06
5.2247896e-06
5.2326655e-06
5.2414164e-06
5.2482021e-06
5.2504953e-06
5.2466713e-06
5.2363982e-06
5.2206647e-06
5.2013727e-06
5.1807423e-06
5.1745947e-06
5.1850944e-06
5.1986623e-06
5.21403e-06
5.2290257e-06
5.2412292e-06
5.2486517e-06
5.2502559e-06
5.2463004e-06
5.238307e-06
5.2287212e-06
5.2203152e-06
5.215439e-06
5.2154639e-06
5.2203623e-06
5.2287657e-06
5.2383259e-06
5.2462874e-06
5.2501958e-06
5.2485054e-06
5.2409446e-06
5.2285267e-06
5.2132546e-06
5.1975696e-06
5.1837413e-06
4.9219783e-06
4.9295729e-06
4.9510223e-06
4.9709958e-06
4.98719e-06
4.9975938e-06
5.0011948e-06
4.9983517e-06
4.9907811e-06
4.981176e-06
4.9725792e-06
4.9675526e-06
4.9675487e-06
4.9725534e-06
4.9811128e-06
4.990706e-06
4.9982869e-06
5.0011649e-06
4.9976183e-06
4.9873149e-06
4.971333e-06
4.9516625e-06
4.9306329e-06
4.9235688e-06
4.9338607e-06
4.9477347e-06
4.9635791e-06
4.9790856e-06
4.9916872e-06
4.9992764e-06
5.0007243e-06
4.9962889e-06
4.9875891e-06
4.977227e-06
4.9681724e-06
4.9629195e-06
4.9629541e-06
4.9682353e-06
4.977289e-06
4.9876166e-06
4.9962801e-06
5.0006714e-06
4.9991476e-06
4.9914291e-06
4.9786052e-06
4.9628039e-06
4.9465987e-06
4.9323882e-06
3.7136883e-06
3.7225655e-06
3.7408449e-06
3.7575661e-06
3.7710399e-06
3.7795629e-06
3.7822542e-06
3.7794111e-06
3.7725232e-06
3.7639297e-06
3.7562997e-06
3.7518594e-06
3.7518606e-06
3.7562858e-06
3.7638748e-06
3.7724617e-06
3.7793564e-06
3.7822197e-06
3.7795555e-06
3.7710948e-06
3.7578028e-06
3.7413292e-06
3.7234479e-06
3.7160117e-06
3.7249845e-06
3.736952e-06
3.7504433e-06
3.7636119e-06
3.7742745e-06
3.7806345e-06
3.7816838e-06
3.7776318e-06
3.7698959e-06
3.7607355e-06
3.7527741e-06
3.7481473e-06
3.7481862e-06
3.7528453e-06
3.7608156e-06
3.7699339e-06
3.777629e-06
3.7816404e-06
3.7805413e-06
3.7740919e-06
3.7632435e-06
3.7498222e-06
3.7359805e-06
3.7235306e-06
2.0812885e-06
2.0908434e-06
2.1018622e-06
2.1121229e-06
2.120377e-06
2.1255399e-06
2.1270588e-06
2.1251187e-06
2.1206586e-06
2.115145e-06
2.110276e-06
2.10746e-06
2.1074625e-06
2.1102782e-06
2.1151108e-06
2.1206237e-06
2.125085e-06
2.1270334e-06
2.1255211e-06
2.1203886e-06
2.1122535e-06
2.1020977e-06
2.0908624e-06
2.0837709e-06
2.0907801e-06
2.0987937e-06
2.1073134e-06
2.1155263e-06
2.1221304e-06
2.1260424e-06
2.1266163e-06
2.1239762e-06
2.1190319e-06
2.1131942e-06
2.1081638e-06
2.1052269e-06
2.1052501e-06
2.1082149e-06
2.1132693e-06
2.1190728e-06
2.1239796e-06
2.1265778e-06
2.125982e-06
2.1220344e-06
2.1153235e-06
2.1069595e-06
2.0981526e-06
2.0891786e-06
8.8020959e-07
8.8437557e-07
8.8925675e-07
8.9386272e-07
8.9756257e-07
8.9985824e-07
9.0050005e-07
8.9957751e-07
8.9751722e-07
8.9497988e-07
8.9274222e-07
8.914635e-07
8.9146207e-07
8.927536e-07
8.9496466e-07
8.9750503e-07
8.9956164e-07
9.0048712e-07
8.9984626e-07
8.9756809e-07
8.9392737e-07
8.8935206e-07
8.8432886e-07
8.7939216e-07
8.8346957e-07
8.8761343e-07
8.9156377e-07
8.9530244e-07
8.9827954e-07
9.000315e-07
9.0026665e-07
8.9903578e-07
8.9676764e-07
8.9409226e-07
8.91815e-07
8.9047443e-07
8.9047701e-07
8.9183348e-07
8.9413593e-07
8.9679798e-07
8.9904138e-07
9.0023333e-07
8.9999446e-07
8.9824127e-07
8.9522696e-07
8.9143233e-07
8.8735534e-07
8.8300068e-07
3.0068861e-07
3.0210162e-07
3.0381378e-07
3.054413e-07
3.0674463e-07
3.0754874e-07
3.0776377e-07
3.0742681e-07
3.0668767e-07
3.057794e-07
3.0497501e-07
3.0452384e-07
3.0451995e-07
3.0498416e-07
3.0577371e-07
3.0668605e-07
3.0742078e-07
3.0775831e-07
3.0754508e-07
3.0675258e-07
3.0547035e-07
3.0384873e-07
3.0208104e-07
3.0043457e-07
3.0158947e-07
3.0315871e-07
3.0459316e-07
3.0592825e-07
3.0698124e-07
3.0759534e-07
3.0767238e-07
3.0722687e-07
3.0641726e-07
3.0546405e-07
3.0466099e-07
3.0418393e-07
3.041796e-07
3.0466193e-07
3.0547816e-07
3.0643258e-07
3.0723115e-07
3.0765223e-07
3.0757737e-07
3.069693e-07
3.0590937e-07
3.0456013e-07
3.0308549e-07
3.014863e-07
6.9264763e-08
6.9596437e-08
7.0002162e-08
7.0387164e-08
7.0693648e-08
7.0881984e-08
7.0930712e-08
7.0850194e-08
7.0675276e-08
7.0460873e-08
7.0269772e-08
7.0164171e-08
7.0162248e-08
7.0272664e-08
7.04593e-08
7.0675762e-08
7.0848865e-08
7.0929347e-08
7.0881687e-08
7.0697738e-08
7.0395709e-08
7.0010828e-08
6.9589877e-08
6.9210089e-08
6.9453953e-08
6.9839832e-08
7.0184192e-08
7.0499947e-08
7.0747463e-08
7.089049e-08
7.0907761e-08
7.0801815e-08
7.0610756e-08
7.0386774e-08
7.0198419e-08
7.0085939e-08
7.0083855e-08
7.0197094e-08
7.0388668e-08
7.0615183e-08
7.0803423e-08
7.0901682e-08
7.0885547e-08
7.074498e-08
7.0497005e-08
7.0178444e-08
6.9825086e-08
6.9436766e-08
1.3850594e-08
1.3918421e-08
1.4001555e-08
1.4080139e-08
1.4142312e-08
1.4180378e-08
1.4189882e-08
1.4173251e-08
1.4137494e-08
1.4093892e-08
1.4054777e-08
1.4033351e-08
1.4032755e-08
1.40554e-08
1.4093491e-08
1.4137798e-08
1.4173034e-08
1.4189601e-08
1.4180481e-08
1.4143634e-08
1.4082132e-08
1.4003309e-08
1.3916903e-08
1.3840222e-08
1.3886508e-08
1.3967335e-08
1.4038428e-08
1.4102656e-08
1.415288e-08
1.4181615e-08
1.418496e-08
1.4163302e-08
1.4124319e-08
1.407898e-08
1.4040637e-08
1.4017734e-08
1.4017189e-08
1.4040122e-08
1.4078983e-08
1.4125382e-08
1.4163774e-08
1.4183698e-08
1.4180628e-08
1.4152482e-08
1.4102311e-08
1.4037436e-08
1.3964527e-08
1.3883712e-08
2.4556848e-09
2.4679862e-09
2.4830223e-09
2.4971694e-09
2.5083035e-09
2.5150884e-09
2.5167257e-09
2.5136797e-09
2.5072132e-09
2.4993814e-09
2.4923296e-09
2.4884649e-09
2.4883374e-09
2.4924288e-09
2.4992974e-09
2.5072994e-09
2.5136558e-09
2.5166832e-09
2.5151391e-09
2.5086069e-09
2.4975424e-09
2.4833107e-09
2.4676955e-09
2.4539453e-09
2.461851e-09
2.4767002e-09
2.489614e-09
2.5011203e-09
2.5101179e-09
2.5152235e-09
2.5157893e-09
2.511886e-09
2.5048406e-09
2.4967268e-09
2.4897955e-09
2.485676e-09
2.4855779e-09
2.4896888e-09
2.4966715e-09
2.5050557e-09
2.5119906e-09
2.5156049e-09
2.5150733e-09
2.5100665e-09
2.5010804e-09
2.4894216e-09
2.4761709e-09
2.4613896e-09
3.9152458e-10
3.9352834e-10
3.9596196e-10
3.9824078e-10
4.0002719e-10
4.0110819e-10
4.0136181e-10
4.0086012e-10
3.9981091e-10
3.9854774e-10
3.9741081e-10
3.9678251e-10
3.9676252e-10
3.974234e-10
3.9853406e-10
3.9982716e-10
4.0085895e-10
4.0135837e-10
4.0112094e-10
4.0007983e-10
3.9829797e-10
3.9600133e-10
3.9347871e-10
3.9126499e-10
3.9248601e-10
3.9491926e-10
3.9701408e-10
3.988595e-10
4.0030228e-10
4.0111726e-10
4.0120173e-10
4.0057061e-10
3.9942782e-10
3.9812219e-10
3.9699549e-10
3.9633141e-10
3.9631808e-10
3.9698058e-10
3.9810879e-10
3.9946329e-10
4.0058748e-10
4.0118203e-10
4.0109819e-10
4.0029566e-10
3.9885116e-10
3.9697555e-10
3.948246e-10
3.9241223e-10
5.6787743e-11
5.7083951e-11
5.7440649e-11
5.7773172e-11
5.8032983e-11
5.8188792e-11
5.8224466e-11
5.8149373e-11
5.7994816e-11
5.7809454e-11
5.7643255e-11
5.7550325e-11
5.7547909e-11
5.7644644e-11
5.7807709e-11
5.7997051e-11
5.8149492e-11
5.8224626e-11
5.8191063e-11
5.8040199e-11
5.7780503e-11
5.7445323e-11
5.7076204e-11
5.6752832e-11
5.692442e-11
5.7284682e-11
5.7592107e-11
5.7860702e-11
5.8070189e-11
5.8188443e-11
5.8199778e-11
5.8106922e-11
5.7938907e-11
5.7747532e-11
5.758124e-11
5.7484073e-11
5.7482611e-11
5.7579702e-11
5.7745489e-11
5.7943525e-11
5.810885e-11
5.8198009e-11
5.8186142e-11
5.8069103e-11
5.7858494e-11
5.7585077e-11
5.7269465e-11
5.6913696e-11
7.5564468e-12
7.5964837e-12
7.6442644e-12
7.6886228e-12
7.7231539e-12
7.7436755e-12
7.7482429e-12
7.737959e-12
7.7171026e-12
7.6921466e-12
7.6698986e-12
7.6573182e-12
7.6570828e-12
7.6700415e-12
7.6919671e-12
7.7173354e-12
7.7379883e-12
7.748334e-12
7.7439819e-12
7.7239635e-12
7.6894204e-12
7.6447684e-12
7.5953816e-12
7.5521549e-12
7.5742401e-12
7.6228888e-12
7.6640971e-12
7.69989e-12
7.7276859e-12
7.7433968e-12
7.7447873e-12
7.7322515e-12
7.7096952e-12
7.68394e-12
7.6615071e-12
7.6484784e-12
7.6483458e-12
7.6613779e-12
7.6837043e-12
7.7101596e-12
7.7324019e-12
7.7446084e-12
7.7431127e-12
7.727486e-12
7.6994192e-12
7.6629763e-12
7.6207205e-12
7.572842e-12
9.2729254e-13
9.3225343e-13
9.381378e-13
9.4358292e-13
9.4779342e-13
9.5028592e-13
9.5081375e-13
9.4952067e-13
9.4692298e-13
9.4382099e-13
9.4108346e-13
9.3951588e-13
9.3949911e-13
9.4109215e-13
9.4380998e-13
9.4693818e-13
9.4952652e-13
9.5083301e-13
9.5031419e-13
9.4786274e-13
9.4365168e-13
9.3819251e-13
9.3211495e-13
9.2681016e-13
9.2941572e-13
9.3544477e-13
9.4051723e-13
9.449122e-13
9.4829425e-13
9.5021399e-13
9.5037443e-13
9.4881304e-13
9.46039e-13
9.4283484e-13
9.4006387e-13
9.3844763e-13
9.3844295e-13
9.400487e-13
9.428252e-13
9.460668e-13
9.4882389e-13
9.5034644e-13
9.5017613e-13
9.4825536e-13
9.4482048e-13
9.4035268e-13
9.3516277e-13
9.2925277e-13
1.0570453e-13
1.062723e-13
1.0694366e-13
1.0756276e-13
1.0803757e-13
1.0831953e-13
1.0837465e-13
1.0822465e-13
1.0792372e-13
1.075663e-13
1.0725426e-13
1.0707386e-13
1.0707258e-13
1.0725405e-13
1.0756627e-13
1.0792463e-13
1.0822592e-13
1.0837692e-13
1.0832133e-13
1.0804294e-13
1.0756824e-13
1.0694899e-13
1.0625699e-13
1.0565311e-13
1.0593822e-13
1.0663012e-13
1.0720772e-13
1.0770755e-13
1.080888e-13
1.0830598e-13
1.0832239e-13
1.0814296e-13
1.0782655e-13
1.0745713e-13
1.0714157e-13
1.069553e-13
1.0695686e-13
1.0713984e-13
1.0746005e-13
1.0782816e-13
1.0814536e-13
1.0831929e-13
1.0830117e-13
1.0808333e-13
1.0769388e-13
1.071868e-13
1.0659613e-13
1.0591993e-13
1.1251853e-14
1.1312353e-14
1.1383683e-14
1.1449127e-14
1.1499023e-14
1.1528797e-14
1.1534099e-14
1.1517942e-14
1.148543e-14
1.1447161e-14
1.1414019e-14
1.1394766e-14
1.1394571e-14
1.1413889e-14
1.1447242e-14
1.1485601e-14
1.1518207e-14
1.1534317e-14
1.1528948e-14
1.1499558e-14
1.1449706e-14
1.1384073e-14
1.1310827e-14
1.1246539e-14
1.1275764e-14
1.1349742e-14
1.141096e-14
1.1463855e-14
1.1503949e-14
1.1526855e-14
1.1528256e-14
1.1509163e-14
1.1475331e-14
1.1435788e-14
1.1402338e-14
1.1382407e-14
1.1382859e-14
1.1402312e-14
1.1436615e-14
1.1475681e-14
1.1509655e-14
1.1528126e-14
1.1526288e-14
1.1503427e-14
1.1462226e-14
1.1408718e-14
1.134599e-14
1.1273767e-14
1.1219325e-15
1.1279687e-15
1.1350513e-15
1.1415034e-15
1.1464094e-15
1.149342e-15
1.1498196e-15
1.1481937e-15
1.1449161e-15
1.1410991e-15
1.1378061e-15
1.1358913e-15
1.1358554e-15
1.1377862e-15
1.141109e-15
1.1449551e-15
1.1482397e-15
1.1498445e-15
1.1493672e-15
1.1464783e-15
1.1415781e-15
1.1350662e-15
1.1278269e-15
1.1214032e-15
1.124222e-15
1.1316113e-15
1.1376794e-15
1.142909e-15
1.1468543e-15
1.149117e-15
1.1492162e-15
1.14732e-15
1.1439187e-15
1.139973e-15
1.1366492e-15
1.1346659e-15
1.1347402e-15
1.1366809e-15
1.1401011e-15
1.1439915e-15
1.147384e-15
1.149231e-15
1.149055e-15
1.1468243e-15
1.1427419e-15
1.1374754e-15
1.1312407e-15
1.1240188e-15
1.0495051e-16
1.0551601e-16
1.0617485e-16
1.0676978e-16
1.0722163e-16
1.074911e-16
1.0753157e-16
1.07378e-16
1.070696e-16
1.0671405e-16
1.0640718e-16
1.0622894e-16
1.0622354e-16
1.0640498e-16
1.0671445e-16
1.0707594e-16
1.073844e-16
1.0753475e-16
1.0749488e-16
1.0723017e-16
1.0677821e-16
1.0617362e-16
1.0550327e-16
1.0490041e-16
1.0515665e-16
1.0584683e-16
1.0641098e-16
1.0689492e-16
1.0725875e-16
1.0746833e-16
1.0747454e-16
1.072976e-16
1.0697678e-16
1.0660836e-16
1.0629786e-16
1.0611358e-16
1.0612273e-16
1.0630484e-16
1.0662308e-16
1.0698685e-16
1.0730322e-16
1.0747797e-16
1.0746234e-16
1.072589e-16
1.0687964e-16
1.0639482e-16
1.0581446e-16
1.0513778e-16
9.2142462e-18
9.2640291e-18
9.3214998e-18
9.3729135e-18
9.4118938e-18
9.4350373e-18
9.4382433e-18
9.4246009e-18
9.3974895e-18
9.3664944e-18
9.3396345e-18
9.3240591e-18
9.3234141e-18
9.3394297e-18
9.3664245e-18
9.3982617e-18
9.4253277e-18
9.4386023e-18
9.4354279e-18
9.4127869e-18
9.3736427e-18
9.321145e-18
9.2628908e-18
9.2097903e-18
9.2317462e-18
9.2920568e-18
9.3412864e-18
9.3832112e-18
9.4146976e-18
9.4328772e-18
9.4332792e-18
9.4177165e-18
9.3894244e-18
9.3571642e-18
9.3299121e-18
9.3138523e-18
9.3147695e-18
9.3308255e-18
9.3585407e-18
9.3904387e-18
9.4180518e-18
9.4336677e-18
9.432393e-18
9.414979e-18
9.381954e-18
9.3401248e-18
9.2895398e-18
9.2301316e-18
7.5904056e-19
7.6315635e-19
7.6785617e-19
7.7202469e-19
7.7517389e-19
7.7703565e-19
7.7727124e-19
7.7613231e-19
7.7390263e-19
7.713695e-19
7.6916022e-19
7.6788165e-19
7.6781854e-19
7.6914379e-19
7.7135166e-19
7.7397713e-19
7.7620083e-19
7.7730498e-19
7.7706266e-19
7.7525184e-19
7.7206963e-19
7.6780712e-19
7.6305485e-19
7.5867077e-19
7.6044176e-19
7.6537487e-19
7.6940425e-19
7.728035e-19
7.7536208e-19
7.7683654e-19
7.7686767e-19
7.7557823e-19
7.7325071e-19
7.7060053e-19
7.6835751e-19
7.6704166e-19
7.6711967e-19
7.6844606e-19
7.7071056e-19
7.7332933e-19
7.7558937e-19
7.7690081e-19
7.7680571e-19
7.7540338e-19
7.7271004e-19
7.6932379e-19
7.651965e-19
7.6031221e-19
5.8625654e-20
5.8944851e-20
5.9304795e-20
5.9621863e-20
5.9860126e-20
6.0000576e-20
6.0016583e-20
5.9927427e-20
5.9755682e-20
5.9561403e-20
5.9390752e-20
5.9292249e-20
5.9287043e-20
5.9389639e-20
5.9559017e-20
5.9761561e-20
5.9932866e-20
6.0019246e-20
6.0001567e-20
5.9865899e-20
5.9623404e-20
5.9299752e-20
5.8936047e-20
5.8597136e-20
5.8731312e-20
5.9109157e-20
5.9418066e-20
5.9675991e-20
5.987116e-20
5.9982867e-20
5.9985565e-20
5.9885169e-20
5.9706613e-20
5.9502522e-20
5.9329679e-20
5.9228316e-20
5.923411e-20
5.9336485e-20
5.9510275e-20
5.9711384e-20
5.9884983e-20
5.9987978e-20
5.9981498e-20
5.9875226e-20
5.9669652e-20
5.9412389e-20
5.9097245e-20
5.8721484e-20
4.2415261e-21
4.2647189e-21
4.2905046e-21
4.3131108e-21
4.3299915e-21
4.3399264e-21
4.3409342e-21
4.3344072e-21
4.322012e-21
4.3080277e-21
4.2956665e-21
4.2885574e-21
4.2881869e-21
4.295607e-21
4.3077915e-21
4.3223978e-21
4.3347726e-21
4.3411157e-21
4.3398945e-21
4.3303621e-21
4.3130685e-21
4.2900846e-21
4.2639992e-21
4.2394859e-21
4.2490102e-21
4.276113e-21
4.2982637e-21
4.3165813e-21
4.3305421e-21
4.3384477e-21
4.3386704e-21
4.3313482e-21
4.3185635e-21
4.3038432e-21
4.2912069e-21
4.2838779e-21
4.2842617e-21
4.2916331e-21
4.3043353e-21
4.3187838e-21
4.331293e-21
4.3388324e-21
4.3384295e-21
4.3308591e-21
4.3161828e-21
4.297852e-21
4.2753391e-21
4.248309e-21
2.8716896e-22
2.8874592e-22
2.9047202e-22
2.9198091e-22
2.9310057e-22
2.9375882e-22
2.9381797e-22
2.9337198e-22
2.9253417e-22
2.9158995e-22
2.9074103e-22
2.9026115e-22
2.9023799e-22
2.9073895e-22
2.9157105e-22
2.9255536e-22
2.9339266e-22
2.9382892e-22
2.9374994e-22
2.9312171e-22
2.9196914e-22
2.9044275e-22
2.8869172e-22
2.8703351e-22
2.8766561e-22
2.8948565e-22
2.9096956e-22
2.9218728e-22
2.9312249e-22
2.9364547e-22
2.9366157e-22
2.9316278e-22
2.9230687e-22
2.9127527e-22
2.8894247e-22
2.884493e-22
2.8847217e-22
2.8896415e-22
2.9130377e-22
2.9231352e-22
2.9315851e-22
2.9367211e-22
2.936493e-22
2.9314327e-22
2.9216367e-22
2.9094003e-22
2.8943605e-22
2.8761916e-22
1.8177233e-23
1.8277462e-23
1.838535e-23
1.8479511e-23
1.8549003e-23
1.8589799e-23
1.8593057e-23
1.8564642e-23
1.8511643e-23
1.8449702e-23
1.8300081e-23
1.827e-23
1.8268718e-23
1.8300088e-23
1.8448429e-23
1.8512612e-23
1.8565612e-23
1.8593651e-23
1.8588914e-23
1.8550104e-23
1.8478386e-23
1.8383613e-23
1.8273736e-23
1.8168867e-23
1.8208036e-23
1.8322384e-23
1.8415183e-23
1.8490943e-23
1.8549535e-23
1.8581904e-23
1.85829e-23
1.8551208e-23
1.8495371e-23
1.8334351e-23
1.8282443e-23
1.8251275e-23
1.825253e-23
1.8283341e-23
1.8335859e-23
1.8495377e-23
1.8551007e-23
1.8583576e-23
1.8582401e-23
1.8550718e-23
1.8489611e-23
1.8413183e-23
1.8319279e-23
1.8205212e-23
1.074838e-24
1.0807872e-24
1.0870809e-24
1.0925684e-24
1.0966017e-24
1.0989642e-24
1.0991334e-24
1.0974448e-24
1.094192e-24
1.0847251e-24
1.0816398e-24
1.0798698e-24
1.0798053e-24
1.081648e-24
1.0846517e-24
1.094228e-24
1.0974806e-24
1.0991626e-24
1.0989005e-24
1.0966557e-24
1.0924911e-24
1.0869919e-24
1.0805538e-24
1.0743556e-24
1.0766204e-24
1.0833362e-24
1.088751e-24
1.0931599e-24
1.0965893e-24
1.098465e-24
1.098517e-24
1.0965535e-24
1.0874296e-24
1.0837031e-24
1.0806939e-24
1.0788565e-24
1.0789198e-24
1.0807217e-24
1.0837776e-24
1.0874141e-24
1.0965485e-24
1.098559e-24
1.0985046e-24
1.0966493e-24
1.0930882e-24
1.0886263e-24
1.0831504e-24
1.0764641e-24
5.9334013e-26
5.9663515e-26
6.0006098e-26
6.03045e-26
6.052328e-26
6.0651009e-26
6.0659285e-26
6.0561239e-26
6.0051856e-26
5.9854625e-26
5.9687028e-26
5.9589787e-26
5.9586841e-26
5.9687792e-26
5.985092e-26
6.0052848e-26
6.0562103e-26
6.0660582e-26
6.0647268e-26
6.0525829e-26
6.0300177e-26
6.0002124e-26
5.9650167e-26
5.9307971e-26
5.9430128e-26
5.9798548e-26
6.0093245e-26
6.0333098e-26
6.0520478e-26
6.0622266e-26
6.0624539e-26
6.0510363e-26
6.0004816e-26
5.9802715e-26
5.9637321e-26
5.9536355e-26
5.9539285e-26
5.9637797e-26
5.980611e-26
6.0003561e-26
6.0510473e-26
6.0626976e-26
6.062477e-26
6.0523252e-26
6.0329442e-26
6.0086165e-26
5.9788127e-26
5.9422274e-26
3.0563566e-27
3.0733756e-27
3.0907726e-27
3.1059058e-27
3.116991e-27
3.1234366e-27
3.1238165e-27
3.1184692e-27
3.0920594e-27
3.0820223e-27
3.0734167e-27
3.068429e-27
3.0683057e-27
3.073465e-27
3.0818557e-27
3.0920739e-27
3.1184659e-27
3.1238679e-27
3.1232471e-27
3.1171084e-27
3.1056995e-27
3.0906161e-27
3.0726752e-27
3.0550375e-27
3.0611845e-27
3.0800493e-27
3.095007e-27
3.1071966e-27
3.11675e-27
3.1219208e-27
3.1217891e-27
3.0985415e-27
3.0897992e-27
3.0794513e-27
3.0709622e-27
3.0657911e-27
3.0659159e-27
3.0709513e-27
3.0795946e-27
3.0897324e-27
3.0985643e-27
3.1219186e-27
3.1220548e-27
3.116869e-27
3.1070212e-27
3.0946404e-27
3.0795078e-27
3.060826e-27
1.4686174e-28
1.4768114e-28
1.4850526e-28
1.4922085e-28
1.497453e-28
1.5004881e-28
1.5005573e-28
1.4894419e-28
1.4852277e-28
1.4804088e-28
1.4762902e-28
1.4739018e-28
1.4738544e-28
1.4763143e-28
1.4803416e-28
1.4852231e-28
1.4894238e-28
1.5005752e-28
1.500403e-28
1.4975054e-28
1.4921222e-28
1.4849975e-28
1.4764729e-28
1.4679901e-28
1.470876e-28
1.4798877e-28
1.4869673e-28
1.4927515e-28
1.4972955e-28
1.4997529e-28
1.4995481e-28
1.488291e-28
1.4841611e-28
1.4792182e-28
1.4751515e-28
1.4726828e-28
1.4727315e-28
1.4751374e-28
1.4792743e-28
1.4841332e-28
1.488308e-28
1.4996099e-28
1.4998156e-28
1.4973435e-28
1.4926727e-28
1.4867935e-28
1.4796282e-28
1.470727e-28
6.5817755e-30
6.6185419e-30
6.6549575e-30
6.6865071e-30
6.7096684e-30
6.7230046e-30
6.7227311e-30
6.6723948e-30
6.653815e-30
6.6322475e-30
6.6138724e-30
6.6031966e-30
6.603029e-30
6.6139724e-30
6.6320015e-30
6.6537638e-30
6.672269e-30
6.7227822e-30
6.7226606e-30
6.7098914e-30
6.6861854e-30
6.654779e-30
6.6170295e-30
6.5789763e-30
6.5916179e-30
6.631765e-30
6.663013e-30
6.688631e-30
6.7087925e-30
6.719322e-30
6.6792062e-30
6.6675704e-30
6.6491168e-30
6.6270911e-30
6.6089149e-30
6.5979258e-30
6.5981e-30
6.6088394e-30
6.6272958e-30
6.6490237e-30
6.667662e-30
6.6794698e-30
6.7195818e-30
6.7089752e-30
6.6883013e-30
6.6622545e-30
6.6306181e-30
6.591053e-30
2.7507276e-31
2.7660997e-31
2.781107e-31
2.7940776e-31
2.8036227e-31
2.8089414e-31
2.7920894e-31
2.7875762e-31
2.7798471e-31
2.7708499e-31
2.763206e-31
2.7587535e-31
2.7586986e-31
2.7632413e-31
2.770767e-31
2.7798195e-31
2.7875144e-31
2.7921007e-31
2.808814e-31
2.8037119e-31
2.7939688e-31
2.781052e-31
2.7654725e-31
2.7495568e-31
2.7547238e-31
2.7713989e-31
2.784261e-31
2.7948479e-31
2.8031927e-31
2.8074142e-31
2.7903501e-31
2.7856108e-31
2.7779171e-31
2.7687614e-31
2.7611841e-31
2.7566216e-31
2.7566791e-31
2.7611546e-31
2.7688314e-31
2.7778925e-31
2.7856515e-31
2.7904527e-31
2.8075109e-31
2.8032589e-31
2.7947192e-31
2.7839551e-31
2.770931e-31
2.7545278e-31
1.0721125e-32
1.0781017e-32
1.0838699e-32
1.0888433e-32
1.0925141e-32
1.0944958e-32
1.0878075e-32
1.0860808e-32
1.0830826e-32
1.0795837e-32
1.0766179e-32
1.0748855e-32
1.0748689e-32
1.0766286e-32
1.0795577e-32
1.0830711e-32
1.0860556e-32
1.087809e-32
1.0944521e-32
1.0925472e-32
1.0888096e-32
1.083853e-32
1.0778599e-32
1.0716543e-32
1.0736246e-32
1.0800817e-32
1.0850194e-32
1.0891018e-32
1.0923242e-32
1.093891e-32
1.0871701e-32
1.0853356e-32
1.0823434e-32
1.0787927e-32
1.0758466e-32
1.0740793e-32
1.0740968e-32
1.0758374e-32
1.0788153e-32
1.082339e-32
1.0853513e-32
1.0872061e-32
1.0939236e-32
1.0923468e-32
1.0890549e-32
1.084905e-32
1.0799051e-32
1.0735625e-32
3.897903e-34
3.9196531e-34
3.9403351e-34
3.9581277e-34
3.971304e-34
3.9781518e-34
3.9535523e-34
3.9472762e-34
3.9364271e-34
3.9237367e-34
3.9130003e-34
3.9067113e-34
3.9066644e-34
3.9130277e-34
3.9236605e-34
3.9363859e-34
3.9471877e-34
3.9535491e-34
3.9780135e-34
3.9714174e-34
3.9580318e-34
3.9402811e-34
3.9187858e-34
3.8962266e-34
3.9032367e-34
3.9265521e-34
3.9442367e-34
3.9589277e-34
3.9703597e-34
3.9513597e-34
3.9512717e-34
3.9446425e-34
3.9337866e-34
3.9209363e-34
3.9102503e-34
3.9038609e-34
3.9039104e-34
3.9102272e-34
3.9210052e-34
3.9337862e-34
3.9446973e-34
3.9513867e-34
3.951459e-34
3.9704313e-34
3.958768e-34
3.9438387e-34
3.9259335e-34
3.9030571e-34
1.3224064e-35
1.3297715e-35
1.3366911e-35
1.3426326e-35
1.3469915e-35
1.3407292e-35
1.3408133e-35
1.3386849e-35
1.3350208e-35
1.3307262e-35
1.3270981e-35
1.3249675e-35
1.3249552e-35
1.3271038e-35
1.330705e-35
1.3350075e-35
1.3386573e-35
1.3408102e-35
1.3406892e-35
1.3470271e-35
1.3426075e-35
1.3366731e-35
1.3294817e-35
1.3218338e-35
1.324161e-35
1.3320138e-35
1.3379249e-35
1.3428606e-35
1.3466508e-35
1.3400526e-35
1.340053e-35
1.3378161e-35
1.3341408e-35
1.3297993e-35
1.3261824e-35
1.3240255e-35
1.3240385e-35
1.326178e-35
1.3298192e-35
1.3341449e-35
1.3378335e-35
1.3400862e-35
1.3400806e-35
1.3466713e-35
1.3428096e-35
1.3377961e-35
1.3318124e-35
1.324114e-35
4.1881234e-37
4.2113891e-37
4.233e-37
4.2515285e-37
4.2650069e-37
4.2445943e-37
4.244943e-37
4.2382065e-37
4.22665e-37
4.2130825e-37
4.2016328e-37
4.1948946e-37
4.1948644e-37
4.201641e-37
4.2130266e-37
4.226611e-37
4.2381287e-37
4.2449282e-37
4.2444875e-37
4.2651091e-37
4.251468e-37
4.2329395e-37
4.2104866e-37
4.1862989e-37
4.193509e-37
4.2181891e-37
4.2366371e-37
4.2521245e-37
4.2638728e-37
4.2425864e-37
4.242579e-37
4.2355284e-37
4.223913e-37
4.210214e-37
4.1987849e-37
4.1919837e-37
4.1920157e-37
4.198781e-37
4.2102692e-37
4.2239354e-37
4.235579e-37
4.2426669e-37
4.2426584e-37
4.2639259e-37
4.2519719e-37
4.2362483e-37
4.217579e-37
4.1933994e-37
1.2387959e-38
1.2456553e-38
1.2519586e-38
1.2573576e-38
1.261255e-38
1.2550735e-38
1.2551723e-38
1.2531812e-38
1.2497756e-38
1.2457719e-38
1.2423958e-38
1.2404055e-38
1.2403986e-38
1.2423959e-38
1.2457578e-38
1.2497649e-38
1.2531612e-38
1.2551671e-38
1.2550472e-38
1.2612819e-38
1.2573443e-38
1.2519389e-38
1.2453931e-38
1.2382536e-38
1.2403391e-38
1.2475803e-38
1.2529586e-38
1.2574995e-38
1.2608936e-38
1.2544899e-38
1.254486e-38
1.2524091e-38
1.2489805e-38
1.2449418e-38
1.2415685e-38
1.2395643e-38
1.2395717e-38
1.2415698e-38
1.2449564e-38
1.2489891e-38
1.2524228e-38
1.2545074e-38
1.2545068e-38
1.2609057e-38
1.2574567e-38
1.2528492e-38
1.247408e-38
1.2403168e-38
3.4240073e-40
3.4428935e-40
3.4600729e-40
3.4747815e-40
3.485295e-40
3.4678382e-40
3.4681012e-40
3.4626023e-40
3.4532198e-40
3.4421777e-40
3.4328716e-40
3.4273778e-40
3.4273626e-40
3.4328668e-40
3.4421434e-40
3.453192e-40
3.4625546e-40
3.4680856e-40
3.4677787e-40
3.48536e-40
3.4747544e-40
3.4600124e-40
3.442183e-40
3.4225042e-40
3.4281379e-40
3.4479831e-40
3.4626385e-40
3.4749678e-40
3.4608502e-40
3.4662531e-40
3.466239e-40
3.4605188e-40
3.4510613e-40
3.4399305e-40
3.4306254e-40
3.4251035e-40
3.4251198e-40
3.4306341e-40
3.4399672e-40
3.4510886e-40
3.4605538e-40
3.4662875e-40
3.4662896e-40
3.4608741e-40
3.4748552e-40
3.4623511e-40
3.4475293e-40
3.4281013e-40
8.8485842e-42
8.8971749e-42
8.9409516e-42
8.9781555e-42
8.9432855e-42
8.9589041e-42
8.9595609e-42
8.9453617e-42
8.9211817e-42
8.8927009e-42
8.868707e-42
8.8545275e-42
8.8544956e-42
8.8686853e-42
8.8926212e-42
8.9211137e-42
8.9452557e-42
8.95952e-42
8.9587807e-42
8.9434302e-42
8.9781063e-42
8.9407795e-42
8.8953769e-42
8.8446981e-42
8.8589194e-42
8.9097499e-42
8.9470982e-42
8.9784299e-42
8.9407815e-42
8.9548758e-42
8.954834e-42
8.9400963e-42
8.9157017e-42
8.8870077e-42
8.863005e-42
8.8487722e-42
8.8488067e-42
8.8630375e-42
8.8870961e-42
8.915778e-42
8.9401803e-42
8.9549368e-42
8.9549471e-42
8.9408218e-42
8.9781512e-42
8.9463934e-42
8.9086337e-42
8.8588808e-42
2.1393628e-43
2.1510526e-43
2.1614892e-43
2.1703017e-43
2.1615584e-43
2.1653339e-43
2.1654878e-43
2.1620573e-43
2.1562246e-43
2.1493501e-43
2.1435603e-43
2.1401359e-43
2.1401295e-43
2.1435534e-43
2.1493324e-43
2.1562089e-43
2.1620351e-43
2.1654781e-43
2.1653102e-43
2.1615887e-43
2.1702934e-43
2.1614441e-43
2.1506274e-43
2.1384254e-43
2.1417819e-43
2.1539578e-43
2.1628651e-43
2.1703215e-43
2.1609748e-43
2.1643755e-43
2.1643646e-43
2.1608105e-43
2.1549227e-43
2.1479997e-43
2.1422059e-43