/*--------------------------------*- C++ -*----------------------------------*\
| =========                 |                                                 |
| \\      /  F ield         | OpenFOAM: The Open Source CFD Toolbox           |
|  \\    /   O peration     | Version:  v1912                                 |
|   \\  /    A nd           | Website:  www.openfoam.com                      |
|    \\/     M anipulation  |                                                 |
\*---------------------------------------------------------------------------*/
FoamFile
{
    version     2.0;
    format      ascii;
    class       volScalarField;
    location    "2";
    object      Zmix;
}
// * * * * * * * * * * * * * * * * * * * * * * * * * * * * * * * * * * * * * //

dimensions      [0 0 0 0 0 0 0];


internalField   nonuniform List<scalar> 
255504
(
4.0175688e-05
4.0097175e-05
4.0178118e-05
4.0358929e-05
4.0495599e-05
4.0592066e-05
4.0653095e-05
4.0684492e-05
4.0693719e-05
4.068951e-05
4.0680625e-05
4.0674193e-05
4.0674226e-05
4.0680744e-05
4.0689776e-05
4.0694231e-05
4.0685386e-05
4.0654527e-05
4.0594204e-05
4.0498591e-05
4.0362869e-05
4.0183008e-05
4.0103987e-05
4.0182481e-05
4.0274554e-05
4.0371208e-05
4.0464772e-05
4.0548446e-05
4.0616253e-05
4.0663893e-05
4.0689801e-05
4.0695769e-05
4.0686786e-05
4.0670036e-05
4.0653282e-05
4.0643036e-05
4.0642996e-05
4.0653139e-05
4.0669728e-05
4.068621e-05
4.0694788e-05
4.0688255e-05
4.0661612e-05
4.0613078e-05
4.0544249e-05
4.0459479e-05
4.0364788e-05
4.0266962e-05
6.348382e-05
6.3357655e-05
6.3580832e-05
6.3866091e-05
6.4070545e-05
6.4212278e-05
6.4297826e-05
6.4334829e-05
6.4335272e-05
6.43147e-05
6.4289409e-05
6.4272931e-05
6.4272947e-05
6.4289491e-05
6.431495e-05
6.4335854e-05
6.4335969e-05
6.4299803e-05
6.4215397e-05
6.4075099e-05
6.3872289e-05
6.3588703e-05
6.3367911e-05
6.3494943e-05
6.3651917e-05
6.3814127e-05
6.3970617e-05
6.4110869e-05
6.4224011e-05
6.4301416e-05
6.4339466e-05
6.4341121e-05
6.4315748e-05
6.4277189e-05
6.4240557e-05
6.42186e-05
6.4218571e-05
6.4240435e-05
6.4276869e-05
6.4315058e-05
6.4339831e-05
6.43373e-05
6.4298075e-05
6.4219205e-05
6.4104375e-05
6.3962336e-05
6.3804127e-05
6.364038e-05
0.0001166245
0.0001166315
0.00011709269
0.00011751053
0.00011784927
0.00011809104
0.00011822981
0.00011827399
0.00011824634
0.00011817966
0.00011810955
0.00011806594
0.0001180659
0.0001181095
0.00011817979
0.00011824696
0.00011827554
0.00011823283
0.00011809618
0.0001178572
0.00011752179
0.00011710754
0.0001166489
0.00011664471
0.00011696528
0.00011727592
0.00011757688
0.00011784969
0.00011806989
0.00011821676
0.00011828074
0.00011826736
0.00011819694
0.00011810026
0.00011801121
0.0001179585
0.00011795852
0.00011801118
0.00011809999
0.00011819611
0.00011826551
0.00011827734
0.00011821118
0.0001180615
0.000117838
0.00011756168
0.0001172575
0.00011694462
0.00021344136
0.00021358544
0.00021439743
0.00021514117
0.00021575386
0.00021618689
0.00021641864
0.00021646183
0.00021636241
0.00021618949
0.00021601906
0.00021591539
0.00021591522
0.00021601867
0.00021618921
0.00021636282
0.00021646374
0.0002164231
0.00021619518
0.00021576739
0.00021516124
0.00021442466
0.00021361873
0.0002134796
0.00021401801
0.00021457983
0.00021514664
0.00021567137
0.00021609671
0.00021637449
0.00021648145
0.0002164277
0.00021625608
0.00021603258
0.00021583036
0.00021571157
0.0002157117
0.00021583063
0.00021603262
0.00021625527
0.0002164252
0.00021647621
0.00021636527
0.00021608219
0.00021565039
0.00021511856
0.00021454519
0.00021397906
0.00036723533
0.0003675463
0.00036896257
0.00037026781
0.00037134288
0.00037208841
0.00037245708
0.00037247044
0.00037221707
0.0003718326
0.00037146703
0.00037124762
0.00037124718
0.00037146591
0.00037183137
0.0003722167
0.00037247231
0.00037246302
0.00037210073
0.00037136435
0.00037030131
0.00036901006
0.00036760675
0.00036730538
0.00036817708
0.0003691386
0.0003701448
0.00037109416
0.00037186647
0.00037236125
0.00037252864
0.00037238617
0.00037201733
0.00037155245
0.00037113671
0.00037089371
0.00037089409
0.00037113764
0.00037155329
0.00037201703
0.00037238326
0.00037252125
0.00037234711
0.00037184299
0.00037105878
0.00037009579
0.00036907652
0.00036810636
0.00057382308
0.0005743833
0.00057664838
0.00057875179
0.00058048089
0.00058165597
0.00058218916
0.00058211529
0.00058158906
0.00058084978
0.00058016307
0.00057975467
0.0005797538
0.00058016076
0.00058084689
0.00058158706
0.00058211627
0.00058219593
0.00058167225
0.00058051143
0.00057880219
0.00057672363
0.00057448376
0.00057394184
0.00057523909
0.00057674762
0.00057837902
0.00057994307
0.00058121842
0.00058202075
0.00058225704
0.00058195518
0.00058126147
0.00058040658
0.0005796484
0.00057920681
0.00057920762
0.00057965049
0.00058040897
0.00058126253
0.00058195263
0.0005822479
0.00058200127
0.00058118407
0.00057988886
0.00057830084
0.00057664516
0.00057512
0.0007859993
0.00078687759
0.00079008341
0.00079307809
0.00079553216
0.00079716643
0.00079784235
0.0007976103
0.00079670613
0.00079549726
0.00079439256
0.00079373989
0.00079373849
0.00079438874
0.0007954922
0.00079670175
0.00079760936
0.0007978486
0.00079718493
0.00079556984
0.00079314414
0.00079018801
0.00078702554
0.00078617995
0.00078789057
0.00078999001
0.00079232727
0.00079459671
0.00079644916
0.00079759482
0.00079788563
0.00079736097
0.00079624419
0.00079489014
0.00079369665
0.00079300334
0.00079300469
0.00079370027
0.0007948947
0.00079624749
0.00079735991
0.00079787609
0.00079757144
0.00079640503
0.00079452347
0.00079221672
0.00078983914
0.00078771046
0.00090288223
0.00090406162
0.00090793162
0.00091155399
0.00091450752
0.0009164346
0.00091715535
0.00091673205
0.00091546694
0.00091383314
0.00091235808
0.00091149094
0.00091148912
0.00091235305
0.00091382622
0.00091546029
0.00091672872
0.00091715947
0.00091645184
0.00091454607
0.00091162602
0.0009080537
0.00090424751
0.00090312232
0.00090505142
0.00090755259
0.00091040154
0.00091319176
0.00091546815
0.00091685334
0.00091715254
0.00091641306
0.00091492124
0.00091313465
0.00091156736
0.00091065871
0.00091066053
0.00091157231
0.00091314123
0.00091492693
0.00091641431
0.00091714458
0.00091682974
0.0009154201
0.00091310759
0.00091026795
0.00090736153
0.00090481484
0.00083394566
0.0008352328
0.00083899756
0.00084250687
0.00084535128
0.00084718037
0.00084781565
0.0008473189
0.00084599251
0.00084431068
0.00084280233
0.00084191809
0.00084191629
0.00084279732
0.00084430368
0.00084598549
0.00084731462
0.00084781781
0.00084719404
0.00084538393
0.00084257053
0.00083911146
0.00083542043
0.00083421605
0.00083603177
0.00083846065
0.00084124121
0.00084396712
0.00084618634
0.00084752194
0.00084777771
0.00084699948
0.00084547356
0.00084365872
0.00084207092
0.00084115142
0.00084115326
0.00084207598
0.00084366558
0.00084547991
0.00084700202
0.00084777197
0.00084750177
0.00084614298
0.0008438882
0.00084111131
0.00083826772
0.00083578236
0.00060903366
0.00061042663
0.00061342193
0.00061615082
0.00061834114
0.00061972765
0.00062017164
0.00061972288
0.00061862256
0.00061724899
0.00061602428
0.00061530812
0.00061530672
0.00061602037
0.00061724346
0.00061861685
0.00061971898
0.00062017216
0.00061973612
0.00061836282
0.00061619483
0.00061350558
0.00061058295
0.0006094215
0.00061091734
0.00061286673
0.00061505533
0.00061718622
0.00061891311
0.0006199404
0.00062011226
0.00061946456
0.00061822519
0.00061676017
0.00061548154
0.00061474183
0.00061474329
0.00061548558
0.00061676574
0.00061823058
0.00061946734
0.00062010909
0.00061992656
0.00061888164
0.00061712664
0.00061495323
0.0006127061
0.0006106777
0.00033902826
0.00034054238
0.00034227967
0.0003438805
0.00034515864
0.00034595832
0.00034619912
0.0003459116
0.00034523975
0.00034440911
0.00034367124
0.00034324047
0.00034323966
0.00034366897
0.00034440589
0.00034523639
0.00034590919
0.0003461991
0.00034596257
0.0003451699
0.0003439033
0.00034231841
0.00034055258
0.0003394528
0.0003406077
0.00034186879
0.0003431881
0.00034444806
0.00034546186
0.00034605936
0.00034614919
0.00034575282
0.00034500589
0.00034412646
0.00034336014
0.00034291712
0.00034291798
0.00034336252
0.00034412977
0.00034500916
0.00034575466
0.0003461477
0.00034605177
0.00034544399
0.00034441326
0.00034312607
0.00034175908
0.00034033952
0.0001464988
0.0001471622
0.00014793309
0.00014865075
0.00014922186
0.00014957613
0.00014967829
0.00014954274
0.00014923476
0.00014885626
0.00014852083
0.00014832521
0.00014832486
0.00014851984
0.00014885485
0.00014923329
0.00014954168
0.00014967824
0.00014957789
0.00014922653
0.00014866
0.00014794709
0.00014715819
0.00014637344
0.00014705172
0.00014771231
0.00014832439
0.00014889353
0.0001493476
0.00014961321
0.00014965007
0.00014946806
0.0001491284
0.00014872952
0.00014838232
0.00014818169
0.00014818207
0.00014838337
0.00014873099
0.00014912986
0.0001494689
0.00014964945
0.00014960988
0.00014933964
0.00014887776
0.00014829576
0.00014766214
0.00014696735
5.1704446e-05
5.1935052e-05
5.2212162e-05
5.2471849e-05
5.2677904e-05
5.2804843e-05
5.2840239e-05
5.2789559e-05
5.2676589e-05
5.2538338e-05
5.2416027e-05
5.2344755e-05
5.234463e-05
5.2415679e-05
5.2537843e-05
5.2676073e-05
5.2789188e-05
5.2840224e-05
5.2805454e-05
5.267951e-05
5.2474954e-05
5.2216531e-05
5.1933067e-05
5.1666234e-05
5.186341e-05
5.2121481e-05
5.2349399e-05
5.2556596e-05
5.2720545e-05
5.2815832e-05
5.2828215e-05
5.2761361e-05
5.2637479e-05
5.2492272e-05
5.2365973e-05
5.2293015e-05
5.229315e-05
5.2366347e-05
5.2492793e-05
5.2637997e-05
5.2761659e-05
5.2827989e-05
5.2814633e-05
5.2717653e-05
5.2550822e-05
5.2338853e-05
5.2103747e-05
5.1841404e-05
1.221539e-05
1.2270932e-05
1.2338289e-05
1.2401357e-05
1.2451179e-05
1.2481699e-05
1.2490033e-05
1.2477571e-05
1.2450088e-05
1.2416535e-05
1.2386878e-05
1.2369603e-05
1.2369574e-05
1.2386797e-05
1.241642e-05
1.2449969e-05
1.2477488e-05
1.2490036e-05
1.2481852e-05
1.245157e-05
1.2402093e-05
1.2339227e-05
1.2270133e-05
1.220737e-05
1.2249866e-05
1.2315153e-05
1.237132e-05
1.2421566e-05
1.2461077e-05
1.2483937e-05
1.2486774e-05
1.2470491e-05
1.2440451e-05
1.2405279e-05
1.2374699e-05
1.2357035e-05
1.2357067e-05
1.2374787e-05
1.2405402e-05
1.2440572e-05
1.2470558e-05
1.2486715e-05
1.2483642e-05
1.2460368e-05
1.2420142e-05
1.2368711e-05
1.2310886e-05
1.2245485e-05
2.4927589e-06
2.50437e-06
2.5184658e-06
2.5316326e-06
2.5419881e-06
2.5482959e-06
2.5499787e-06
2.5473375e-06
2.5415785e-06
2.5345658e-06
2.5283735e-06
2.5247682e-06
2.5247623e-06
2.5283571e-06
2.5345427e-06
2.5415547e-06
2.5473212e-06
2.5499803e-06
2.5483285e-06
2.5420693e-06
2.5317816e-06
2.5186397e-06
2.5041577e-06
2.4912622e-06
2.4994477e-06
2.5134383e-06
2.5252947e-06
2.5357677e-06
2.543959e-06
2.5486775e-06
2.5492339e-06
2.5458182e-06
2.5395456e-06
2.5322095e-06
2.5258337e-06
2.5221515e-06
2.522158e-06
2.5258516e-06
2.5322343e-06
2.5395699e-06
2.5458314e-06
2.549221e-06
2.5486157e-06
2.5438107e-06
2.5354687e-06
2.5247449e-06
2.5125588e-06
2.4986522e-06
4.493892e-07
4.5153282e-07
4.5412804e-07
4.5654467e-07
4.5843719e-07
4.5958333e-07
4.5988085e-07
4.5938682e-07
4.5832305e-07
4.5703147e-07
4.5589235e-07
4.552295e-07
4.5522844e-07
4.5588942e-07
4.5702735e-07
4.5831884e-07
4.5938397e-07
4.5988121e-07
4.5958927e-07
4.5845182e-07
4.5657095e-07
4.5415638e-07
4.5148836e-07
4.4913783e-07
4.5055145e-07
4.531697e-07
4.5536603e-07
4.5728591e-07
4.587804e-07
4.5963758e-07
4.597329e-07
4.5910135e-07
4.5794719e-07
4.5659912e-07
4.5542812e-07
4.54752e-07
4.5475316e-07
4.5543133e-07
4.5660357e-07
4.5795155e-07
4.5910371e-07
4.5973054e-07
4.5962637e-07
4.5875339e-07
4.5723109e-07
4.5526488e-07
4.5301062e-07
4.5042028e-07
7.2635113e-08
7.2989275e-08
7.3415928e-08
7.381175e-08
7.4120412e-08
7.4306238e-08
7.4353013e-08
7.4270344e-08
7.4094664e-08
7.3882019e-08
7.3694714e-08
7.3585786e-08
7.3585616e-08
7.3694244e-08
7.388136e-08
7.4093992e-08
7.4269891e-08
7.4353075e-08
7.4307191e-08
7.4122742e-08
7.3815858e-08
7.3420036e-08
7.2981363e-08
7.2596819e-08
7.2817541e-08
7.3253182e-08
7.3615798e-08
7.3929959e-08
7.4173471e-08
7.4312549e-08
7.4327025e-08
7.4222638e-08
7.4032812e-08
7.3811393e-08
7.3619169e-08
7.3508209e-08
7.3508396e-08
7.3619686e-08
7.381211e-08
7.4033515e-08
7.4223022e-08
7.4326654e-08
7.431075e-08
7.4169108e-08
7.3921039e-08
7.359927e-08
7.3227511e-08
7.2797788e-08
1.0653091e-08
1.0706059e-08
1.0769464e-08
1.0828041e-08
1.0873525e-08
1.0900743e-08
1.0907365e-08
1.0894846e-08
1.0868596e-08
1.0836923e-08
1.0809059e-08
1.0792864e-08
1.0792839e-08
1.0808991e-08
1.0836827e-08
1.0868499e-08
1.089478e-08
1.0907373e-08
1.090088e-08
1.0873858e-08
1.0828617e-08
1.0769998e-08
1.0704818e-08
1.0647758e-08
1.0679178e-08
1.0744523e-08
1.0798567e-08
1.0845025e-08
1.0880896e-08
1.0901299e-08
1.0903272e-08
1.0887664e-08
1.0859421e-08
1.082652e-08
1.0797973e-08
1.0781498e-08
1.0781526e-08
1.0798049e-08
1.0826625e-08
1.0859524e-08
1.0887722e-08
1.0903221e-08
1.090104e-08
1.0880263e-08
1.0843719e-08
1.0796135e-08
1.074078e-08
1.0676445e-08
1.430207e-09
1.4374392e-09
1.446033e-09
1.4539369e-09
1.460048e-09
1.4636825e-09
1.4645344e-09
1.4628043e-09
1.4592244e-09
1.4549184e-09
1.451135e-09
1.4489372e-09
1.4489339e-09
1.451126e-09
1.4549057e-09
1.4592115e-09
1.4627955e-09
1.4645353e-09
1.4637001e-09
1.460091e-09
1.4540103e-09
1.4460956e-09
1.4372638e-09
1.4295237e-09
1.4336275e-09
1.4425515e-09
1.4498905e-09
1.4561559e-09
1.4609764e-09
1.4637071e-09
1.4639507e-09
1.4618211e-09
1.4579859e-09
1.453524e-09
1.4496542e-09
1.4474214e-09
1.4474251e-09
1.4496643e-09
1.453538e-09
1.4579998e-09
1.461829e-09
1.4639444e-09
1.4636734e-09
1.4608929e-09
1.4559822e-09
1.4495653e-09
1.442054e-09
1.4332786e-09
1.7670942e-10
1.7761581e-10
1.7868419e-10
1.7966216e-10
1.8041513e-10
1.8086016e-10
1.8096037e-10
1.8074099e-10
1.8029295e-10
1.7975569e-10
1.7928419e-10
1.7901043e-10
1.7901003e-10
1.7928308e-10
1.7975414e-10
1.8029137e-10
1.807399e-10
1.8096044e-10
1.8086223e-10
1.804202e-10
1.7967069e-10
1.7869081e-10
1.7759325e-10
1.7662857e-10
1.7712233e-10
1.782389e-10
1.7915237e-10
1.7992736e-10
1.8052171e-10
1.8085709e-10
1.808845e-10
1.8061787e-10
1.8013993e-10
1.7958454e-10
1.7910307e-10
1.7882532e-10
1.7882577e-10
1.7910431e-10
1.7958626e-10
1.8014165e-10
1.8061888e-10
1.808838e-10
1.8085309e-10
1.8051165e-10
1.7990624e-10
1.7911259e-10
1.7817828e-10
1.7708114e-10
2.0242765e-11
2.0347826e-11
2.04706e-11
2.0582437e-11
2.0668184e-11
2.071855e-11
2.0729413e-11
2.0703699e-11
2.0651846e-11
2.0589851e-11
2.0535507e-11
2.050397e-11
2.0503924e-11
2.0535381e-11
2.0589675e-11
2.0651666e-11
2.0703574e-11
2.0729415e-11
2.0718773e-11
2.0668734e-11
2.0583348e-11
2.0471234e-11
2.0345154e-11
2.0233872e-11
2.0288962e-11
2.0418007e-11
2.0523048e-11
2.0611659e-11
2.0679419e-11
2.0717516e-11
2.0720345e-11
2.0689482e-11
2.0634401e-11
2.0570463e-11
2.0515059e-11
2.0483101e-11
2.0483152e-11
2.05152e-11
2.057066e-11
2.0634598e-11
2.0689602e-11
2.0720276e-11
2.0717079e-11
2.0678303e-11
2.060929e-11
2.0518558e-11
2.0411181e-11
2.0284444e-11
2.1614692e-12
2.1727964e-12
2.1859135e-12
2.1978025e-12
2.2068806e-12
2.2121801e-12
2.2132718e-12
2.2104706e-12
2.2048898e-12
2.1982366e-12
2.192411e-12
2.1890318e-12
2.189027e-12
2.1923978e-12
2.1982181e-12
2.2048707e-12
2.2104571e-12
2.2132714e-12
2.2122023e-12
2.206936e-12
2.1978928e-12
2.1859685e-12
2.1725028e-12
2.160555e-12
2.1662847e-12
2.1801442e-12
2.1913693e-12
2.2007892e-12
2.2079739e-12
2.2119996e-12
2.2122692e-12
2.2089476e-12
2.2030437e-12
2.1961975e-12
2.1902672e-12
2.186847e-12
2.1868524e-12
2.1902821e-12
2.1962184e-12
2.2030648e-12
2.2089608e-12
2.212263e-12
2.2119555e-12
2.207859e-12
2.2005426e-12
2.190899e-12
2.1794301e-12
2.1658223e-12
2.1581336e-13
2.1695338e-13
2.1826115e-13
2.1944042e-13
2.2033724e-13
2.208576e-13
2.2095971e-13
2.2067511e-13
2.2011461e-13
2.1944823e-13
2.1886533e-13
2.1852736e-13
2.1852689e-13
2.1886403e-13
2.194464e-13
2.2011272e-13
2.2067376e-13
2.2095961e-13
2.2085964e-13
2.2034242e-13
2.1944876e-13
2.1826546e-13
2.1692335e-13
2.1572522e-13
2.1628264e-13
2.1767128e-13
2.1879023e-13
2.1972467e-13
2.2043575e-13
2.2083295e-13
2.2085674e-13
2.2052318e-13
2.1993256e-13
2.1924831e-13
2.186558e-13
2.1831411e-13
2.1831465e-13
2.1865728e-13
2.1925039e-13
2.1993466e-13
2.2052454e-13
2.2085625e-13
2.2082881e-13
2.2042473e-13
2.1970075e-13
2.1874429e-13
2.1760158e-13
2.1623837e-13
2.0180815e-14
2.028814e-14
2.0410062e-14
2.0519429e-14
2.060227e-14
2.0650051e-14
2.0658962e-14
2.0631946e-14
2.0579314e-14
2.0516902e-14
2.0462361e-14
2.043075e-14
2.0430707e-14
2.0462241e-14
2.0516733e-14
2.057914e-14
2.0631819e-14
2.0658945e-14
2.0650225e-14
2.0602723e-14
2.0520149e-14
2.0410364e-14
2.0285275e-14
2.0172832e-14
2.0223659e-14
2.0353743e-14
2.0458003e-14
2.0544674e-14
2.0610499e-14
2.0647165e-14
2.0649113e-14
2.06178e-14
2.0562548e-14
2.0498592e-14
2.0443225e-14
2.04113e-14
2.041135e-14
2.0443362e-14
2.0498784e-14
2.0562745e-14
2.0617931e-14
2.0649079e-14
2.0646803e-14
2.0609513e-14
2.0542508e-14
2.0453811e-14
2.0347381e-14
2.0219686e-14
1.7682369e-15
1.7776965e-15
1.7883355e-15
1.7978277e-15
1.8049895e-15
1.8090963e-15
1.8098226e-15
1.8074249e-15
1.8028006e-15
1.7973301e-15
1.7925539e-15
1.7897868e-15
1.789783e-15
1.7925436e-15
1.7973156e-15
1.8027854e-15
1.8074136e-15
1.8098206e-15
1.8091101e-15
1.8050263e-15
1.7978858e-15
1.7883541e-15
1.7774414e-15
1.7675571e-15
1.7719051e-15
1.7833102e-15
1.7923992e-15
1.7999224e-15
1.8056267e-15
1.8087962e-15
1.8089444e-15
1.8061941e-15
1.8013568e-15
1.7957617e-15
1.7909193e-15
1.7881273e-15
1.7881316e-15
1.7909311e-15
1.7957784e-15
1.8013741e-15
1.8062059e-15
1.8089424e-15
1.8087667e-15
1.8055442e-15
1.7997389e-15
1.7920413e-15
1.7827664e-15
1.7715707e-15
1.4514469e-16
1.4592543e-16
1.4679452e-16
1.4756565e-16
1.4814521e-16
1.484757e-16
1.4853102e-16
1.4833203e-16
1.4795185e-16
1.4750311e-16
1.4711163e-16
1.468849e-16
1.468846e-16
1.4711079e-16
1.4750193e-16
1.4795062e-16
1.4833111e-16
1.4853081e-16
1.4847672e-16
1.4814802e-16
1.4757005e-16
1.4679549e-16
1.4590422e-16
1.4509027e-16
1.4543933e-16
1.4637542e-16
1.4711686e-16
1.4772808e-16
1.481909e-16
1.4844751e-16
1.4845796e-16
1.4823196e-16
1.4783558e-16
1.4737741e-16
1.4698096e-16
1.4675239e-16
1.4675274e-16
1.4698192e-16
1.4737877e-16
1.4783699e-16
1.4823295e-16
1.4845788e-16
1.4844526e-16
1.4818445e-16
1.4771354e-16
1.4708826e-16
1.4633187e-16
1.4541291e-16
1.1155049e-17
1.121537e-17
1.1281812e-17
1.1340431e-17
1.1384321e-17
1.1409215e-17
1.1413152e-17
1.1397717e-17
1.136848e-17
1.1334041e-17
1.130402e-17
1.1286638e-17
1.1286615e-17
1.1303956e-17
1.1333951e-17
1.1368386e-17
1.1397645e-17
1.1413132e-17
1.1409285e-17
1.1384521e-17
1.1340743e-17
1.128185e-17
1.1213725e-17
1.1150957e-17
1.1177248e-17
1.1249155e-17
1.1305736e-17
1.1352201e-17
1.1387346e-17
1.1406799e-17
1.1407483e-17
1.1390111e-17
1.1359723e-17
1.1324617e-17
1.1294244e-17
1.1276734e-17
1.1276761e-17
1.1294317e-17
1.1324721e-17
1.1359831e-17
1.1390189e-17
1.1407482e-17
1.1406639e-17
1.1386875e-17
1.1351123e-17
1.1303597e-17
1.1245888e-17
1.1175289e-17
8.0208924e-19
8.0644924e-19
8.112004e-19
8.1536783e-19
8.1847649e-19
8.2023075e-19
8.2049247e-19
8.1937403e-19
8.1727213e-19
8.1480093e-19
8.1264802e-19
8.1140187e-19
8.1140024e-19
8.1264348e-19
8.1479453e-19
8.1726542e-19
8.1936884e-19
8.2049085e-19
8.2023518e-19
8.1848971e-19
8.153885e-19
8.1120092e-19
8.0633022e-19
8.0180037e-19
8.0365724e-19
8.0882403e-19
8.1286114e-19
8.1616428e-19
8.1866093e-19
8.2004083e-19
8.200822e-19
8.1883407e-19
8.1665558e-19
8.1413944e-19
8.1192951e-19
8.1067489e-19
8.1067677e-19
8.1193473e-19
8.1414682e-19
8.1666332e-19
8.1883978e-19
8.2008253e-19
8.2003025e-19
8.1862875e-19
8.1608955e-19
8.1271146e-19
8.0859449e-19
8.0352095e-19
5.3914895e-20
5.4209522e-20
5.4527089e-20
5.4803988e-20
5.5009792e-20
5.5125374e-20
5.5141622e-20
5.506596e-20
5.492479e-20
5.4759058e-20
5.4612761e-20
5.4529263e-20
5.4529154e-20
5.4612458e-20
5.4758633e-20
5.4924343e-20
5.5065609e-20
5.51415e-20
5.5125634e-20
5.5010609e-20
5.4805269e-20
5.4526998e-20
5.4201489e-20
5.3895766e-20
5.4018659e-20
5.43657e-20
5.4634843e-20
5.4854294e-20
5.5020093e-20
5.511163e-20
5.5113943e-20
5.5030165e-20
5.4884142e-20
5.4708358e-20
5.4279786e-20
5.4196279e-20
5.4196403e-20
5.4280132e-20
5.470885e-20
5.4884661e-20
5.5030555e-20
5.5113989e-20
5.5110976e-20
5.5018042e-20
5.4849456e-20
5.462505e-20
5.4350608e-20
5.4009769e-20
3.3853991e-21
3.4039996e-21
3.4238269e-21
3.4410107e-21
3.4537379e-21
3.4608537e-21
3.4617953e-21
3.4570194e-21
3.4481626e-21
3.4373683e-21
3.4101881e-21
3.4049947e-21
3.4049879e-21
3.4101694e-21
3.4373418e-21
3.4481347e-21
3.4569973e-21
3.4617868e-21
3.4608678e-21
3.4537849e-21
3.4410847e-21
3.4238143e-21
3.4034938e-21
3.3842118e-21
3.3918275e-21
3.4136027e-21
3.4303574e-21
3.4439746e-21
3.4542612e-21
3.4599359e-21
3.4600549e-21
3.4548006e-21
3.4452441e-21
3.416196e-21
3.4072588e-21
3.4020393e-21
3.4020471e-21
3.4072813e-21
3.4162265e-21
3.4452766e-21
3.4548254e-21
3.4600593e-21
3.4598984e-21
3.4541392e-21
3.4436821e-21
3.4297589e-21
3.4126749e-21
3.3912845e-21
1.9845326e-22
1.9954968e-22
2.0070533e-22
2.0170078e-22
2.024356e-22
2.0284474e-22
2.0289565e-22
2.0261431e-22
2.0207353e-22
2.0035997e-22
1.9984211e-22
1.9953894e-22
1.9953855e-22
1.9984108e-22
2.0035844e-22
2.0207191e-22
2.0261301e-22
2.0289511e-22
2.0284544e-22
2.0243811e-22
2.0170476e-22
2.0070423e-22
1.9951996e-22
1.9838422e-22
1.988258e-22
2.0010139e-22
2.0107481e-22
2.0186357e-22
2.0245951e-22
2.027881e-22
2.0279359e-22
2.0246967e-22
2.0082029e-22
2.0019637e-22
1.9968317e-22
1.9937867e-22
1.9937912e-22
1.9968448e-22
2.001982e-22
2.0082217e-22
2.0247114e-22
2.0279392e-22
2.0278609e-22
2.0245273e-22
2.0184708e-22
2.0104066e-22
2.0004809e-22
1.9879478e-22
1.0855474e-23
1.0915787e-23
1.0978639e-23
1.1032446e-23
1.1072039e-23
1.1094e-23
1.1096563e-23
1.1080286e-23
1.0989743e-23
1.0956248e-23
1.0928472e-23
1.0911961e-23
1.091194e-23
1.0928416e-23
1.0956168e-23
1.0989655e-23
1.1080215e-23
1.1096531e-23
1.1094032e-23
1.1072164e-23
1.1032645e-23
1.097856e-23
1.0914157e-23
1.0851714e-23
1.0875656e-23
1.0945386e-23
1.0998144e-23
1.1040777e-23
1.1073001e-23
1.1090765e-23
1.1090985e-23
1.1072196e-23
1.098147e-23
1.0947951e-23
1.092001e-23
1.0903435e-23
1.0903459e-23
1.0920081e-23
1.0948051e-23
1.0981576e-23
1.1072274e-23
1.1091007e-23
1.1090665e-23
1.1072651e-23
1.103991e-23
1.0996326e-23
1.0942527e-23
1.0874e-23
5.5391124e-25
5.5700639e-25
5.6019495e-25
5.6290787e-25
5.6489823e-25
5.6599844e-25
5.6611837e-25
5.6523377e-25
5.6058058e-25
5.5889983e-25
5.5748838e-25
5.566496e-25
5.5664852e-25
5.5748554e-25
5.5889577e-25
5.6057625e-25
5.6522999e-25
5.6611663e-25
5.6599978e-25
5.6490397e-25
5.6291708e-25
5.6019001e-25
5.5692282e-25
5.5371954e-25
5.5493275e-25
5.5848852e-25
5.6115534e-25
5.6330502e-25
5.6493096e-25
5.6582707e-25
5.6579575e-25
5.6165351e-25
5.6018878e-25
5.5848691e-25
5.5706778e-25
5.5622607e-25
5.5622732e-25
5.570714e-25
5.5849197e-25
5.6019428e-25
5.6165753e-25
5.6579704e-25
5.6582244e-25
5.649141e-25
5.6326251e-25
5.6106513e-25
5.583455e-25
5.5485027e-25
2.6360339e-26
2.6508481e-26
2.6659337e-26
2.6786908e-26
2.6880246e-26
2.6931671e-26
2.6935198e-26
2.6738043e-26
2.6670259e-26
2.6590602e-26
2.6523706e-26
2.6483963e-26
2.6483912e-26
2.6523572e-26
2.659041e-26
2.6670059e-26
2.6737863e-26
2.693511e-26
2.6931722e-26
2.6880491e-26
2.6787302e-26
2.6659057e-26
2.6504479e-26
2.6351189e-26
2.640862e-26
2.6577729e-26
2.6703431e-26
2.6804535e-26
2.688108e-26
2.6923251e-26
2.6919359e-26
2.672044e-26
2.6652018e-26
2.6571421e-26
2.6504196e-26
2.6464329e-26
2.6464388e-26
2.6504367e-26
2.6571661e-26
2.6652279e-26
2.6720639e-26
2.6919422e-26
2.6923052e-26
2.6880323e-26
2.6802595e-26
2.6699258e-26
2.6571056e-26
2.6404792e-26
1.1699033e-27
1.1765156e-27
1.1831712e-27
1.1887657e-27
1.1928487e-27
1.1950913e-27
1.195137e-27
1.1862917e-27
1.1833329e-27
1.1798119e-27
1.1768551e-27
1.1750988e-27
1.1750966e-27
1.1768492e-27
1.1798034e-27
1.1833241e-27
1.1862839e-27
1.1951327e-27
1.195093e-27
1.1928584e-27
1.1887812e-27
1.1831567e-27
1.1763365e-27
1.1694947e-27
1.1720336e-27
1.1795338e-27
1.1850586e-27
1.189494e-27
1.1928557e-27
1.1946378e-27
1.1874275e-27
1.1855636e-27
1.1825406e-27
1.1789806e-27
1.1760106e-27
1.1742494e-27
1.174252e-27
1.1760182e-27
1.1789912e-27
1.1825521e-27
1.1855728e-27
1.1874306e-27
1.1946298e-27
1.192824e-27
1.1894115e-27
1.1848788e-27
1.1792436e-27
1.1718682e-27
4.8418484e-29
4.8693689e-29
4.8967483e-29
4.9196273e-29
4.9362871e-29
4.9451458e-29
4.9155251e-29
4.9083148e-29
4.8961068e-29
4.8815927e-29
4.8694044e-29
4.862166e-29
4.8621568e-29
4.8693801e-29
4.8815577e-29
4.8960705e-29
4.9082836e-29
4.9155067e-29
4.9451508e-29
4.9363225e-29
4.9196839e-29
4.8966794e-29
4.8686193e-29
4.8401405e-29
4.8506199e-29
4.8816379e-29
4.9042795e-29
4.9224287e-29
4.9362011e-29
4.9432367e-29
4.9128799e-29
4.9053533e-29
4.8928967e-29
4.8782306e-29
4.8659933e-29
4.8587367e-29
4.8587475e-29
4.8660245e-29
4.8782743e-29
4.8929444e-29
4.9053914e-29
4.9128949e-29
4.9432063e-29
4.936078e-29
4.9221019e-29
4.9035579e-29
4.880462e-29
4.8499549e-29
1.8688649e-30
1.8795458e-30
1.8900488e-30
1.8987754e-30
1.9051168e-30
1.9083851e-30
1.896729e-30
1.894003e-30
1.8893053e-30
1.8837247e-30
1.8790386e-30
1.8762558e-30
1.8762523e-30
1.8790292e-30
1.8837112e-30
1.8892914e-30
1.893991e-30
1.896722e-30
1.908386e-30
1.9051288e-30
1.8987943e-30
1.8900186e-30
1.8792526e-30
1.8681972e-30
1.8722349e-30
1.8841972e-30
1.8928503e-30
1.8997782e-30
1.9050426e-30
1.9076098e-30
1.8957727e-30
1.8928795e-30
1.8880919e-30
1.882456e-30
1.8777527e-30
1.8749637e-30
1.8749678e-30
1.8777647e-30
1.8824728e-30
1.8881103e-30
1.8928942e-30
1.8957792e-30
1.9075989e-30
1.9049979e-30
1.8996577e-30
1.8925805e-30
1.8837533e-30
1.8719864e-30
6.7294108e-32
6.7680764e-32
6.8056578e-32
6.8367114e-32
6.8592364e-32
6.8704118e-32
6.8279043e-32
6.8180945e-32
6.8012298e-32
6.781209e-32
6.7643982e-32
6.7544159e-32
6.7544031e-32
6.7643647e-32
6.7811607e-32
6.8011796e-32
6.8180509e-32
6.8278796e-32
6.8704114e-32
6.859274e-32
6.836769e-32
6.8055357e-32
6.7670042e-32
6.7269694e-32
6.7414935e-32
6.7845251e-32
6.8153744e-32
6.8400516e-32
6.8585169e-32
6.8246174e-32
6.8244951e-32
6.8141177e-32
6.7969488e-32
6.7767398e-32
6.7598734e-32
6.7498709e-32
6.7498857e-32
6.7599165e-32
6.7768001e-32
6.797015e-32
6.814171e-32
6.8245212e-32
6.8245828e-32
6.8583662e-32
6.8396376e-32
6.8144351e-32
6.7829642e-32
6.7406304e-32
2.261337e-33
2.2743968e-33
2.2869443e-33
2.2972574e-33
2.3046288e-33
2.293553e-33
2.2938243e-33
2.29053e-33
2.2848793e-33
2.2781749e-33
2.2725459e-33
2.2692033e-33
2.269199e-33
2.2725346e-33
2.2781587e-33
2.2848624e-33
2.2905153e-33
2.2938162e-33
2.2935522e-33
2.3046397e-33
2.2972734e-33
2.2868986e-33
2.2740304e-33
2.2605022e-33
2.2653805e-33
2.2798241e-33
2.2900876e-33
2.2982932e-33
2.304346e-33
2.2926775e-33
2.2926903e-33
2.2892162e-33
2.2834692e-33
2.2767049e-33
2.2710589e-33
2.2677103e-33
2.2677152e-33
2.2710733e-33
2.2767251e-33
2.2834914e-33
2.2892342e-33
2.2926995e-33
2.2926675e-33
2.3042982e-33
2.2981607e-33
2.2897829e-33
2.2793126e-33
2.2651019e-33
7.0945767e-35
7.1357503e-35
7.174856e-35
7.206836e-35
7.2293809e-35
7.1936566e-35
7.194608e-35
7.1842803e-35
7.1666014e-35
7.145636e-35
7.1280341e-35
7.1175818e-35
7.1175683e-35
7.1279988e-35
7.1455853e-35
7.1665487e-35
7.1842342e-35
7.1945819e-35
7.1936532e-35
7.2294091e-35
7.2068761e-35
7.1746983e-35
7.1345799e-35
7.0919076e-35
7.1072105e-35
7.1524646e-35
7.1843441e-35
7.2098265e-35
7.228376e-35
7.1910598e-35
7.1910883e-35
7.1802278e-35
7.1622633e-35
7.1411187e-35
7.1234687e-35
7.1129996e-35
7.1130151e-35
7.123514e-35
7.141182e-35
7.1623329e-35
7.1802845e-35
7.1911184e-35
7.1910333e-35
7.2282347e-35
7.2094312e-35
7.1834226e-35
7.1509022e-35
7.1063746e-35
2.0790672e-36
2.0911889e-36
2.1025713e-36
2.1118351e-36
2.1182824e-36
2.1075725e-36
2.107833e-36
2.1048089e-36
2.0996415e-36
2.0935161e-36
2.0883736e-36
2.0853197e-36
2.0853158e-36
2.0883632e-36
2.0935012e-36
2.0996261e-36
2.1047953e-36
2.1078252e-36
2.1075714e-36
2.118289e-36
2.1118441e-36
2.1025208e-36
2.0908395e-36
2.0782693e-36
2.0827542e-36
2.0959953e-36
2.1052446e-36
2.1126391e-36
2.1179361e-36
2.1068074e-36
2.106813e-36
2.103641e-36
2.0983943e-36
2.0922187e-36
2.0870635e-36
2.0840052e-36
2.0840097e-36
2.0870767e-36
2.0922372e-36
2.0984147e-36
2.1036577e-36
2.1068222e-36
2.106801e-36
2.117897e-36
2.1125291e-36
2.1049848e-36
2.0955503e-36
2.0825211e-36
5.6940388e-38
5.7273805e-38
5.7583377e-38
5.7834199e-38
5.8006189e-38
5.770667e-38
5.7713351e-38
5.763059e-38
5.748941e-38
5.7322107e-38
5.7181658e-38
5.7098247e-38
5.7098139e-38
5.7181375e-38
5.7321701e-38
5.7488988e-38
5.7630218e-38
5.7713134e-38
5.7706634e-38
5.800633e-38
5.7834374e-38
5.7581883e-38
5.7264057e-38
5.6918082e-38
5.7040933e-38
5.7402924e-38
5.7653719e-38
5.7852365e-38
5.7602412e-38
5.768564e-38
5.7685735e-38
5.7599128e-38
5.7455883e-38
5.7287265e-38
5.71465e-38
5.7062982e-38
5.7063106e-38
5.7146862e-38
5.7287771e-38
5.7456441e-38
5.7599586e-38
5.7685993e-38
5.7685498e-38
5.760142e-38
5.7849509e-38
5.7646883e-38
5.7391099e-38
5.7034886e-38
1.4582427e-39
1.4668157e-39
1.4746875e-39
1.480992e-39
1.4750587e-39
1.477501e-39
1.4776616e-39
1.4755436e-39
1.4719358e-39
1.4676617e-39
1.4640738e-39
1.4619427e-39
1.46194e-39
1.4640665e-39
1.4676513e-39
1.471925e-39
1.475534e-39
1.477656e-39
1.4775e-39
1.4750616e-39
1.4809948e-39
1.4746464e-39
1.4665615e-39
1.4576596e-39
1.4608062e-39
1.4700579e-39
1.4764169e-39
1.4814116e-39
1.4748139e-39
1.4769613e-39
1.4769626e-39
1.4747508e-39
1.4710927e-39
1.4667862e-39
1.463191e-39
1.4610575e-39
1.4610607e-39
1.4632002e-39
1.4667992e-39
1.4711069e-39
1.4747626e-39
1.4769694e-39
1.4769583e-39
1.4747904e-39
1.4813422e-39
1.476249e-39
1.4697645e-39
1.4606603e-39
3.4943064e-41
3.5149252e-41
3.5336502e-41
3.5484855e-41
3.5337343e-41
3.539583e-41
3.5399448e-41
3.5348727e-41
3.5262445e-41
3.5160248e-41
3.507446e-41
3.5023503e-41
3.5023437e-41
3.5074287e-41
3.5159998e-41
3.5262185e-41
3.5348498e-41
3.5399312e-41
3.5395802e-41
3.53374e-41
3.5484881e-41
3.5335455e-41
3.5143052e-41
3.4928805e-41
3.5004204e-41
3.5225386e-41
3.5376254e-41
3.549387e-41
3.5331665e-41
3.538289e-41
3.5382896e-41
3.5330031e-41
3.5242595e-41
3.5139652e-41
3.5053708e-41